ITEM: TIMESTEP
100000
ITEM: NUMBER OF ATOMS
400
ITEM: BOX BOUNDS pp pp pp
0.0000000000000000e+00 1.9706585563285863e+01
0.0000000000000000e+00 1.9706585563285863e+01
-4.9266463908214658e-01 4.9266463908214658e-01
ITEM: ATOMS id type xs ys zs
333 1 0.0108133 0.381746 0.5
222 1 0.051322 0.0149009 0.5
43 1 0.0221958 0.0590002 0.5
384 1 0.10383 0.0277669 0.5
194 1 0.163303 0.0401193 0.5
98 1 0.215369 0.0464363 0.5
18 1 0.0714068 0.080284 0.5
312 1 0.124053 0.0764099 0.5
196 1 0.174761 0.0900012 0.5
59 1 0.232278 0.0957127 0.5
81 1 0.0264971 0.112456 0.5
23 1 0.101031 0.118816 0.5
392 1 0.149719 0.131475 0.5
295 1 0.00346438 0.156093 0.5
5 1 0.197931 0.131755 0.5
136 1 0.0590731 0.148463 0.5
106 1 0.104129 0.171081 0.5
3 1 0.164997 0.178324 0.5
145 1 0.229428 0.19174 0.5
11 1 0.0303764 0.208225 0.5
77 1 0.0810636 0.213674 0.5
346 1 0.138925 0.226218 0.5
91 1 0.192628 0.220644 0.5
313 1 0.243593 0.479549 0.5
45 1 0.0526704 0.256023 0.5
316 1 0.103986 0.259352 0.5
339 1 0.0158142 0.290622 0.5
140 1 0.164093 0.270634 0.5
39 1 0.215117 0.276851 0.5
27 1 0.0753785 0.301376 0.5
149 1 0.13092 0.31232 0.5
228 1 0.186071 0.315233 0.5
156 1 0.227638 0.334763 0.5
253 1 0.0426749 0.341087 0.5
190 1 0.089991 0.357609 0.5
152 1 0.141604 0.365151 0.5
12 1 0.187601 0.456423 0.5
40 1 0.0583421 0.399363 0.5
297 1 0.192699 0.373786 0.5
329 1 0.0454052 0.479497 0.5
189 1 0.109326 0.40848 0.5
204 1 0.155504 0.412594 0.5
241 1 0.223899 0.423505 0.5
51 1 0.0228854 0.433256 0.5
116 1 0.0793378 0.44662 0.5
72 1 0.131069 0.461518 0.5
1 1 0.00244419 0.00858922 0.5
215 1 0.241802 0.0060979 0.5
109 1 0.248537 0.143951 0.5
188 1 0.0923882 0.497844 0.5
47 1 0.248554 0.238752 0.5
153 1 0.247344 0.380876 0.5
185 1 0.133568 0.98789 0.5
92 1 0.0090442 0.902146 0.5
279 1 0.242609 0.898799 0.5
41 1 0.0499177 0.530655 0.5
301 1 0.106098 0.544426 0.5
314 1 0.159694 0.556155 0.5
382 1 0.221902 0.559017 0.5
50 1 0.0267448 0.587052 0.5
361 1 0.083094 0.593814 0.5
113 1 0.132214 0.596321 0.5
133 1 0.208708 0.940184 0.5
93 1 0.0526045 0.63466 0.5
94 1 0.184959 0.605844 0.5
70 1 0.226248 0.852572 0.5
371 1 0.102453 0.636039 0.5
202 1 0.153721 0.645686 0.5
307 1 0.212001 0.655742 0.5
84 1 0.246643 0.755909 0.5
221 1 0.072108 0.681719 0.5
174 1 0.121317 0.684433 0.5
101 1 0.0396753 0.724064 0.5
231 1 0.0898959 0.731531 0.5
115 1 0.171753 0.692995 0.5
375 1 0.225689 0.706375 0.5
85 1 0.139359 0.738957 0.5
87 1 0.196619 0.744792 0.5
229 1 0.091138 0.959802 0.5
320 1 0.0385288 0.957226 0.5
240 1 0.0596098 0.770859 0.5
69 1 0.107884 0.779096 0.5
103 1 0.163197 0.784142 0.5
380 1 0.0255052 0.810125 0.5
330 1 0.0797372 0.820978 0.5
179 1 0.219308 0.795437 0.5
264 1 0.130465 0.824262 0.5
304 1 0.179362 0.831047 0.5
183 1 0.000773926 0.538652 0.5
184 1 0.0416109 0.855491 0.5
90 1 0.0960201 0.867311 0.5
349 1 0.149134 0.870864 0.5
74 1 0.192492 0.897218 0.5
373 1 0.0244201 0.675701 0.5
360 1 0.058681 0.91257 0.5
31 1 0.114386 0.911668 0.5
56 1 0.156444 0.936542 0.5
142 1 0.152389 0.505826 0.5
262 1 0.201472 0.506193 0.5
367 1 0.239302 0.615896 0.5
97 1 0.192804 0.999072 0.5
223 1 1.0139e-06 0.767808 0.5
192 1 0.296124 0.0210134 0.5
182 1 0.345825 0.01153 0.5
121 1 0.485842 0.229287 0.5
267 1 0.449794 0.0353389 0.5
100 1 0.395054 0.0215157 0.5
370 1 0.312278 0.0675261 0.5
271 1 0.362542 0.0632312 0.5
305 1 0.281024 0.106436 0.5
309 1 0.411507 0.0680546 0.5
212 1 0.472501 0.0872213 0.5
10 1 0.339153 0.112576 0.5
125 1 0.3869 0.115826 0.5
233 1 0.435018 0.12196 0.5
206 1 0.493775 0.366492 0.5
298 1 0.306004 0.148695 0.5
377 1 0.357315 0.160305 0.5
300 1 0.280663 0.192662 0.5
25 1 0.407252 0.172123 0.5
282 1 0.460402 0.174554 0.5
126 1 0.330333 0.204449 0.5
266 1 0.379692 0.2151 0.5
132 1 0.431843 0.224911 0.5
364 1 0.447335 0.498021 0.5
89 1 0.298122 0.242398 0.5
210 1 0.348271 0.253011 0.5
52 1 0.399783 0.260799 0.5
28 1 0.449309 0.26964 0.5
207 1 0.26337 0.0582253 0.5
281 1 0.316936 0.292854 0.5
342 1 0.367884 0.299511 0.5
263 1 0.277183 0.333934 0.5
49 1 0.330221 0.33694 0.5
134 1 0.417165 0.307983 0.5
250 1 0.476967 0.319034 0.5
283 1 0.384251 0.344762 0.5
163 1 0.438101 0.355226 0.5
198 1 0.493022 0.132004 0.5
122 1 0.298416 0.384 0.5
82 1 0.348786 0.392692 0.5
170 1 0.400446 0.399741 0.5
289 1 0.456715 0.404438 0.5
165 1 0.271359 0.435258 0.5
168 1 0.317802 0.43161 0.5
199 1 0.372717 0.442891 0.5
326 1 0.423326 0.44837 0.5
306 1 0.483684 0.45292 0.5
171 1 0.291704 0.479751 0.5
225 1 0.339768 0.483158 0.5
2 1 0.268939 0.280903 0.5
60 1 0.39145 0.488173 0.5
291 1 0.376535 0.968872 0.5
120 1 0.307782 0.534288 0.5
396 1 0.36381 0.529947 0.5
254 1 0.415481 0.534068 0.5
186 1 0.274699 0.579523 0.5
256 1 0.330238 0.579132 0.5
205 1 0.474105 0.553582 0.5
166 1 0.376324 0.579169 0.5
29 1 0.437692 0.589791 0.5
234 1 0.494116 0.598712 0.5
356 1 0.302302 0.624306 0.5
169 1 0.352066 0.620809 0.5
164 1 0.413967 0.631508 0.5
269 1 0.462256 0.632808 0.5
255 1 0.489289 0.742855 0.5
61 1 0.302871 0.972111 0.5
387 1 0.331221 0.689214 0.5
378 1 0.374273 0.665123 0.5
111 1 0.47346 0.690006 0.5
191 1 0.424195 0.67945 0.5
173 1 0.280546 0.709742 0.5
388 1 0.330661 0.745216 0.5
376 1 0.382992 0.715328 0.5
393 1 0.480949 0.991149 0.5
148 1 0.295441 0.777817 0.5
7 1 0.403673 0.757956 0.5
64 1 0.445063 0.729118 0.5
30 1 0.427769 0.98247 0.5
187 1 0.404231 0.807271 0.5
359 1 0.451206 0.782128 0.5
246 1 0.457151 0.829483 0.5
114 1 0.264039 0.817126 0.5
58 1 0.316816 0.823447 0.5
195 1 0.358143 0.791603 0.5
213 1 0.359917 0.845295 0.5
331 1 0.278216 0.868643 0.5
117 1 0.414398 0.858056 0.5
167 1 0.323276 0.884497 0.5
224 1 0.3696 0.905335 0.5
219 1 0.448076 0.891635 0.5
71 1 0.259859 0.527637 0.5
107 1 0.289838 0.922508 0.5
293 1 0.337931 0.940205 0.5
335 1 0.410879 0.928639 0.5
112 1 0.465858 0.945819 0.5
391 1 0.489779 0.866237 0.5
389 1 0.266719 0.661939 0.5
157 1 0.254685 0.959458 0.5
143 1 0.499975 0.790686 0.5
292 1 0.49953 0.512444 0.5
286 1 0.543274 0.0020101 0.5
351 1 0.701107 0.482527 0.5
217 1 0.502016 0.276788 0.5
235 1 0.739576 0.25411 0.5
334 1 0.558848 0.0524681 0.5
35 1 0.619305 0.0763443 0.5
33 1 0.661837 0.0395576 0.5
53 1 0.523584 0.0892947 0.5
302 1 0.577152 0.107523 0.5
238 1 0.713459 0.0840527 0.5
319 1 0.71022 0.0344643 0.5
318 1 0.645374 0.478521 0.5
357 1 0.626165 0.123103 0.5
161 1 0.672948 0.113098 0.5
73 1 0.515375 0.41328 0.5
308 1 0.541516 0.141455 0.5
79 1 0.591639 0.1602 0.5
141 1 0.654881 0.161111 0.5
365 1 0.704538 0.158368 0.5
208 1 0.50965 0.184065 0.5
151 1 0.555832 0.194741 0.5
296 1 0.616828 0.20619 0.5
181 1 0.667241 0.206688 0.5
150 1 0.533546 0.239213 0.5
175 1 0.58443 0.243239 0.5
19 1 0.720251 0.208019 0.5
13 1 0.638216 0.250398 0.5
230 1 0.690673 0.250556 0.5
128 1 0.613017 0.0243362 0.5
48 1 0.553074 0.283923 0.5
372 1 0.604326 0.288004 0.5
245 1 0.657759 0.295808 0.5
130 1 0.733026 0.445101 0.5
214 1 0.526825 0.327422 0.5
9 1 0.580401 0.336102 0.5
332 1 0.71025 0.295618 0.5
270 1 0.630752 0.336665 0.5
324 1 0.686733 0.340097 0.5
288 1 0.529914 0.471556 0.5
278 1 0.548137 0.372749 0.5
46 1 0.600784 0.378893 0.5
355 1 0.655809 0.390826 0.5
104 1 0.714505 0.386312 0.5
218 1 0.592339 0.469945 0.5
209 1 0.736202 0.341652 0.5
252 1 0.562604 0.424559 0.5
284 1 0.61995 0.429706 0.5
32 1 0.674861 0.438229 0.5
317 1 0.507158 0.0411663 0.5
6 1 0.513071 0.647672 0.5
75 1 0.61319 0.518494 0.5
144 1 0.691796 0.989844 0.5
180 1 0.578372 0.561126 0.5
397 1 0.660174 0.53021 0.5
68 1 0.7199 0.532034 0.5
287 1 0.542367 0.608449 0.5
257 1 0.632068 0.567763 0.5
86 1 0.679561 0.577305 0.5
362 1 0.73114 0.58087 0.5
336 1 0.592298 0.609373 0.5
374 1 0.648613 0.617947 0.5
88 1 0.562712 0.657647 0.5
251 1 0.706655 0.623776 0.5
160 1 0.67398 0.945927 0.5
129 1 0.642247 0.98242 0.5
276 1 0.578939 0.706311 0.5
248 1 0.617078 0.657895 0.5
400 1 0.671179 0.663948 0.5
102 1 0.719376 0.668846 0.5
366 1 0.540768 0.741898 0.5
95 1 0.552583 0.793597 0.5
294 1 0.63557 0.70622 0.5
274 1 0.686118 0.71976 0.5
158 1 0.558034 0.511496 0.5
36 1 0.523676 0.832945 0.5
386 1 0.592033 0.760411 0.5
83 1 0.647459 0.757044 0.5
290 1 0.703196 0.764769 0.5
242 1 0.735925 0.957486 0.5
110 1 0.58263 0.841134 0.5
16 1 0.615746 0.806299 0.5
44 1 0.71768 0.813977 0.5
55 1 0.546744 0.888906 0.5
368 1 0.665604 0.807508 0.5
226 1 0.527798 0.560394 0.5
54 1 0.599027 0.889713 0.5
275 1 0.639825 0.849629 0.5
162 1 0.691241 0.853908 0.5
24 1 0.568224 0.931342 0.5
37 1 0.62135 0.936076 0.5
21 1 0.661979 0.899191 0.5
200 1 0.520802 0.958095 0.5
277 1 0.590062 0.976064 0.5
14 1 0.712883 0.914984 0.5
273 1 0.735238 0.724998 0.5
105 1 0.522516 0.693985 0.5
201 1 0.50368 0.913699 0.5
63 1 0.740678 0.867695 0.5
399 1 0.749989 0.772429 0.5
328 1 0.755164 0.112629 0.5
383 1 0.804362 0.0148841 0.5
258 1 0.87361 0.0257862 0.5
369 1 0.920669 0.0448129 0.5
353 1 0.972446 0.0515871 0.5
138 1 0.773566 0.0603521 0.5
96 1 0.823158 0.0608739 0.5
321 1 0.878727 0.0790828 0.5
197 1 0.92604 0.0953299 0.5
285 1 0.977175 0.0986425 0.5
26 1 0.800043 0.130934 0.5
322 1 0.842748 0.109722 0.5
78 1 0.888999 0.125339 0.5
118 1 0.9524 0.139616 0.5
338 1 0.759139 0.395129 0.5
247 1 0.810792 0.180404 0.5
203 1 0.868929 0.177049 0.5
34 1 0.919217 0.173699 0.5
154 1 0.968137 0.189114 0.5
127 1 0.771001 0.211438 0.5
193 1 0.83118 0.224009 0.5
261 1 0.886164 0.222505 0.5
108 1 0.937082 0.230489 0.5
137 1 0.997211 0.243627 0.5
220 1 0.795814 0.254552 0.5
237 1 0.863485 0.264356 0.5
299 1 0.909927 0.272913 0.5
385 1 0.958525 0.274117 0.5
177 1 0.769261 0.298369 0.5
259 1 0.819515 0.300804 0.5
232 1 0.880478 0.311493 0.5
244 1 0.93146 0.321735 0.5
311 1 0.993927 0.332736 0.5
350 1 0.792974 0.344792 0.5
265 1 0.843448 0.350095 0.5
303 1 0.893168 0.359445 0.5
239 1 0.95591 0.37268 0.5
327 1 0.812554 0.397274 0.5
66 1 0.864641 0.407086 0.5
310 1 0.918885 0.404921 0.5
379 1 0.781488 0.444432 0.5
42 1 0.836514 0.448201 0.5
65 1 0.970411 0.424807 0.5
80 1 0.987595 0.477115 0.5
323 1 0.885217 0.452151 0.5
243 1 0.938879 0.462449 0.5
124 1 0.852228 0.499339 0.5
315 1 0.760241 0.161218 0.5
249 1 0.950698 0.00383453 0.5
159 1 0.751 0.493646 0.5
216 1 0.752453 0.00576313 0.5
337 1 0.803791 0.504376 0.5
341 1 0.902239 0.517672 0.5
4 1 0.907373 0.982633 0.5
76 1 0.818572 0.554946 0.5
347 1 0.868621 0.553754 0.5
139 1 0.951654 0.527912 0.5
236 1 0.792107 0.599276 0.5
15 1 0.846235 0.60024 0.5
227 1 0.917401 0.57253 0.5
343 1 0.969364 0.578379 0.5
22 1 0.89327 0.618918 0.5
345 1 0.943147 0.628323 0.5
280 1 0.805212 0.645833 0.5
57 1 0.854181 0.65995 0.5
38 1 0.915695 0.670343 0.5
99 1 0.968406 0.673657 0.5
381 1 0.770012 0.682998 0.5
363 1 0.821015 0.699177 0.5
20 1 0.880611 0.710857 0.5
358 1 0.937893 0.715066 0.5
268 1 0.990947 0.71974 0.5
131 1 0.784083 0.735932 0.5
398 1 0.842335 0.751097 0.5
272 1 0.891975 0.758713 0.5
8 1 0.941402 0.770467 0.5
178 1 0.770888 0.552227 0.5
325 1 0.803452 0.781931 0.5
172 1 0.861878 0.801521 0.5
135 1 0.909614 0.809369 0.5
176 1 0.972886 0.810882 0.5
123 1 0.770545 0.819381 0.5
67 1 0.822064 0.829739 0.5
344 1 0.870601 0.85004 0.5
352 1 0.934146 0.850608 0.5
340 1 0.843935 0.985279 0.5
155 1 0.791625 0.868922 0.5
394 1 0.847771 0.89464 0.5
395 1 0.906709 0.903431 0.5
260 1 0.754454 0.635807 0.5
119 1 0.958453 0.897766 0.5
146 1 0.764449 0.917872 0.5
17 1 0.812638 0.926384 0.5
62 1 0.872539 0.940231 0.5
348 1 0.942458 0.945579 0.5
354 1 0.98992 0.959379 0.5
211 1 0.783503 0.967452 0.5
390 1 0.984675 0.855435 0.5
147 1 0.996564 0.634558 0.5
