ITEM: TIMESTEP
100000
ITEM: NUMBER OF ATOMS
400
ITEM: BOX BOUNDS pp pp pp
0.0000000000000000e+00 1.9334729780913271e+01
0.0000000000000000e+00 1.9334729780913271e+01
-4.8336824452283178e-01 4.8336824452283178e-01
ITEM: ATOMS id type xs ys zs
108 1 0.185188 0.010587 0.5
137 1 0.157408 0.489223 0.5
16 1 0.0183865 0.0959575 0.5
100 1 0.237786 0.0185921 0.5
17 1 0.0527404 0.0471738 0.5
9 1 0.103796 0.0523036 0.5
196 1 0.15311 0.0555548 0.5
89 1 0.207615 0.0627339 0.5
50 1 0.208112 0.490803 0.5
6 1 0.0712117 0.0960665 0.5
97 1 0.121819 0.103534 0.5
14 1 0.170489 0.108765 0.5
111 1 0.226203 0.114618 0.5
10 1 0.129615 0.0108258 0.5
13 1 0.0790545 0.148873 0.5
18 1 0.137636 0.15596 0.5
101 1 0.190366 0.156266 0.5
24 1 0.0146666 0.173221 0.5
12 1 0.0569787 0.19637 0.5
35 1 0.106717 0.191973 0.5
19 1 0.158916 0.19996 0.5
121 1 0.209178 0.207782 0.5
8 1 0.0320246 0.238837 0.5
23 1 0.0870921 0.237255 0.5
132 1 0.192587 0.256428 0.5
45 1 0.0924273 0.493318 0.5
128 1 0.143625 0.247944 0.5
325 1 0.0608943 0.281949 0.5
127 1 0.108487 0.289256 0.5
30 1 0.154329 0.301509 0.5
118 1 0.211145 0.306042 0.5
37 1 0.0288595 0.324418 0.5
22 1 0.0787165 0.332017 0.5
133 1 0.127705 0.342809 0.5
131 1 0.179399 0.352889 0.5
135 1 0.240347 0.351415 0.5
43 1 0.051196 0.378351 0.5
21 1 0.100258 0.395056 0.5
46 1 0.0246877 0.425036 0.5
39 1 0.158478 0.399948 0.5
34 1 0.21395 0.396602 0.5
136 1 0.0720975 0.436044 0.5
42 1 0.128692 0.442426 0.5
40 1 0.184345 0.4438 0.5
38 1 0.233036 0.447121 0.5
47 1 0.040841 0.475361 0.5
134 1 0.243183 0.26345 0.5
25 1 0.248147 0.169782 0.5
7 1 0.0819583 -0.000385436 0.5
29 1 0.00508295 0.283044 0.5
11 1 0.0287302 0.00228103 0.5
319 1 0.0026647 0.0480404 0.5
68 1 0.0146157 0.522481 0.5
360 1 0.0598006 0.536448 0.5
57 1 0.122 0.538306 0.5
142 1 0.173603 0.540705 0.5
166 1 0.229749 0.541301 0.5
74 1 0.0355151 0.579612 0.5
56 1 0.0888522 0.581201 0.5
44 1 0.137242 0.587301 0.5
53 1 0.196837 0.584542 0.5
191 1 0.208881 0.965729 0.5
72 1 0.0599284 0.625459 0.5
64 1 0.10823 0.629358 0.5
350 1 0.169813 0.625564 0.5
54 1 0.215926 0.63829 0.5
370 1 0.0287703 0.664104 0.5
86 1 0.0784229 0.672072 0.5
380 1 0.138648 0.673342 0.5
58 1 0.186843 0.68115 0.5
303 1 0.00466605 0.942713 0.5
91 1 0.0534081 0.718527 0.5
83 1 0.111023 0.722087 0.5
73 1 0.162779 0.724493 0.5
75 1 0.215019 0.736488 0.5
302 1 0.0188513 0.754423 0.5
99 1 0.0788054 0.766008 0.5
176 1 0.12836 0.76957 0.5
79 1 0.18175 0.775818 0.5
70 1 0.230658 0.782975 0.5
314 1 0.0431407 0.805165 0.5
92 1 0.0929025 0.816636 0.5
82 1 0.153433 0.818013 0.5
93 1 0.0144618 0.852621 0.5
80 1 0.20362 0.825543 0.5
63 1 0.00624345 0.619984 0.5
95 1 0.0658162 0.856065 0.5
5 1 0.123249 0.862646 0.5
88 1 0.174282 0.868639 0.5
87 1 0.226149 0.87194 0.5
2 1 0.0393541 0.89932 0.5
310 1 0.0904064 0.900963 0.5
4 1 0.143997 0.910939 0.5
197 1 0.195925 0.915202 0.5
66 1 0.240777 0.686814 0.5
94 1 0.158482 0.968088 0.5
3 1 0.0575755 0.956194 0.5
98 1 0.107285 0.952235 0.5
69 1 0.244746 0.599865 0.5
182 1 0.245582 0.925885 0.5
102 1 0.287612 0.029365 0.5
15 1 0.337671 0.0363683 0.5
105 1 0.387244 0.0284792 0.5
228 1 0.438828 0.0334808 0.5
261 1 0.496324 0.467186 0.5
106 1 0.307895 0.0790714 0.5
104 1 0.362086 0.0865747 0.5
212 1 0.414618 0.0802316 0.5
207 1 0.469392 0.0808067 0.5
107 1 0.273111 0.125374 0.5
195 1 0.328654 0.123594 0.5
200 1 0.383864 0.130267 0.5
216 1 0.435588 0.12609 0.5
259 1 0.498309 0.374145 0.5
115 1 0.298783 0.171259 0.5
116 1 0.350698 0.169541 0.5
126 1 0.269852 0.21631 0.5
112 1 0.409665 0.174881 0.5
109 1 0.464535 0.176194 0.5
150 1 0.318777 0.220173 0.5
224 1 0.381268 0.226342 0.5
117 1 0.432671 0.229217 0.5
256 1 0.39091 0.468718 0.5
160 1 0.440296 0.464427 0.5
237 1 0.294783 0.262904 0.5
20 1 0.343767 0.264076 0.5
125 1 0.404412 0.270371 0.5
235 1 0.453746 0.275103 0.5
129 1 0.269364 0.306927 0.5
124 1 0.370786 0.308721 0.5
232 1 0.419898 0.317514 0.5
238 1 0.475761 0.326839 0.5
231 1 0.319182 0.307857 0.5
138 1 0.295079 0.352338 0.5
123 1 0.348336 0.363578 0.5
143 1 0.395395 0.363781 0.5
154 1 0.447476 0.372379 0.5
217 1 0.485914 0.235079 0.5
152 1 0.268353 0.397386 0.5
236 1 0.314261 0.409176 0.5
149 1 0.367527 0.407867 0.5
165 1 0.419315 0.413296 0.5
145 1 0.469916 0.424306 0.5
139 1 0.288974 0.449989 0.5
155 1 0.343132 0.454781 0.5
193 1 0.258773 0.0718864 0.5
296 1 0.491698 0.0343208 0.5
119 1 0.486378 0.131329 0.5
59 1 0.257504 0.492243 0.5
114 1 0.417083 0.983193 0.5
198 1 0.368503 0.978679 0.5
174 1 0.417498 0.514143 0.5
169 1 0.469704 0.51094 0.5
146 1 0.280336 0.547659 0.5
163 1 0.330476 0.551142 0.5
55 1 0.379796 0.557446 0.5
153 1 0.432212 0.564644 0.5
144 1 0.480105 0.566398 0.5
141 1 0.29833 0.593174 0.5
151 1 0.351983 0.598105 0.5
147 1 0.399757 0.605594 0.5
158 1 0.452841 0.60981 0.5
48 1 0.268298 0.642656 0.5
49 1 0.318366 0.641935 0.5
175 1 0.371422 0.647391 0.5
287 1 0.422447 0.652152 0.5
276 1 0.471113 0.66599 0.5
156 1 0.294746 0.685033 0.5
164 1 0.345312 0.692329 0.5
184 1 0.397583 0.695884 0.5
183 1 0.444737 0.717546 0.5
157 1 0.358134 0.506665 0.5
298 1 0.48766 0.808338 0.5
167 1 0.318024 0.735778 0.5
161 1 0.369517 0.74186 0.5
194 1 0.416407 0.758148 0.5
60 1 0.289756 0.788933 0.5
170 1 0.476638 0.761489 0.5
188 1 0.337759 0.788087 0.5
171 1 0.388557 0.79958 0.5
293 1 0.438229 0.80465 0.5
84 1 0.255457 0.831573 0.5
172 1 0.304473 0.83587 0.5
173 1 0.35769 0.838243 0.5
65 1 0.409662 0.849512 0.5
179 1 0.460356 0.850694 0.5
181 1 0.275708 0.88066 0.5
85 1 0.329097 0.880748 0.5
177 1 0.378471 0.887573 0.5
90 1 0.297041 0.926552 0.5
199 1 0.345566 0.931564 0.5
178 1 0.431841 0.891928 0.5
168 1 0.481259 0.896577 0.5
103 1 0.402357 0.933657 0.5
268 1 0.453673 0.938351 0.5
192 1 0.262614 0.976223 0.5
291 1 0.319243 0.975246 0.5
81 1 0.266252 0.741746 0.5
278 1 0.473849 0.990699 0.5
286 1 0.497465 0.707034 0.5
159 1 0.307663 0.502646 0.5
264 1 0.5945 0.477065 0.5
342 1 0.744484 0.253013 0.5
267 1 0.694777 0.494018 0.5
209 1 0.723617 0.0227858 0.5
301 1 0.599261 0.0472808 0.5
201 1 0.543991 0.0399404 0.5
206 1 0.64863 0.0532542 0.5
398 1 0.695976 0.0648664 0.5
227 1 0.512606 0.182566 0.5
202 1 0.518249 0.0863578 0.5
113 1 0.569495 0.0905581 0.5
336 1 0.62066 0.0995422 0.5
266 1 0.645576 0.490442 0.5
214 1 0.593833 0.142118 0.5
225 1 0.670647 0.111828 0.5
140 1 0.544834 0.469848 0.5
205 1 0.538185 0.13755 0.5
218 1 0.644183 0.151215 0.5
208 1 0.697689 0.155592 0.5
244 1 0.739404 0.349817 0.5
223 1 0.565064 0.184408 0.5
230 1 0.615383 0.192659 0.5
239 1 0.666086 0.198503 0.5
330 1 0.722199 0.209146 0.5
221 1 0.534779 0.238665 0.5
233 1 0.585437 0.232107 0.5
326 1 0.638267 0.240942 0.5
337 1 0.690766 0.248944 0.5
204 1 0.721093 0.111442 0.5
222 1 0.563668 0.279737 0.5
226 1 0.614006 0.282571 0.5
130 1 0.665993 0.297343 0.5
346 1 0.71802 0.305375 0.5
245 1 0.534406 0.330104 0.5
241 1 0.586332 0.330818 0.5
234 1 0.635688 0.338232 0.5
219 1 0.684373 0.345188 0.5
279 1 0.635515 0.00517381 0.5
229 1 0.554026 0.377981 0.5
240 1 0.656223 0.393646 0.5
243 1 0.606166 0.383388 0.5
321 1 0.705014 0.408811 0.5
251 1 0.522842 0.419361 0.5
253 1 0.577329 0.424135 0.5
252 1 0.626427 0.436624 0.5
246 1 0.673332 0.44727 0.5
247 1 0.728722 0.451843 0.5
120 1 0.508173 0.286029 0.5
396 1 0.745996 0.0693707 0.5
289 1 0.573148 0.000644293 0.5
357 1 0.744688 0.499174 0.5
148 1 0.517609 0.514461 0.5
162 1 0.56738 0.522465 0.5
371 1 0.616366 0.531835 0.5
257 1 0.666152 0.537877 0.5
353 1 0.715353 0.541667 0.5
271 1 0.531024 0.563988 0.5
277 1 0.57995 0.569653 0.5
376 1 0.634554 0.57967 0.5
262 1 0.685209 0.585629 0.5
300 1 0.556707 0.94683 0.5
397 1 0.750317 0.916628 0.5
263 1 0.559067 0.616223 0.5
180 1 0.607891 0.619232 0.5
272 1 0.659545 0.630128 0.5
269 1 0.711704 0.632918 0.5
189 1 0.527444 0.666382 0.5
273 1 0.579888 0.662154 0.5
275 1 0.626319 0.673305 0.5
377 1 0.680373 0.677926 0.5
270 1 0.651739 0.720724 0.5
364 1 0.738137 0.588577 0.5
190 1 0.555331 0.707138 0.5
255 1 0.599716 0.723922 0.5
76 1 0.706969 0.734581 0.5
186 1 0.513713 0.851924 0.5
274 1 0.526523 0.748873 0.5
282 1 0.572897 0.766504 0.5
288 1 0.622701 0.768341 0.5
374 1 0.673243 0.786056 0.5
378 1 0.727924 0.778866 0.5
295 1 0.53888 0.811844 0.5
294 1 0.591641 0.813135 0.5
284 1 0.641013 0.820605 0.5
372 1 0.70238 0.827917 0.5
285 1 0.606691 0.965719 0.5
392 1 0.719404 0.964414 0.5
280 1 0.563654 0.862353 0.5
281 1 0.618387 0.865356 0.5
373 1 0.673213 0.871345 0.5
383 1 0.726693 0.871885 0.5
187 1 0.533646 0.903078 0.5
211 1 0.589087 0.906907 0.5
292 1 0.637021 0.922099 0.5
381 1 0.695038 0.921702 0.5
299 1 0.504952 0.943948 0.5
203 1 0.669429 0.963302 0.5
185 1 0.731115 0.684209 0.5
248 1 0.50658 0.618756 0.5
110 1 0.523356 0.990828 0.5
213 1 0.783612 0.0165343 0.5
393 1 0.841165 0.021785 0.5
313 1 0.89745 0.0317224 0.5
356 1 0.832917 0.459682 0.5
297 1 0.864383 0.0688522 0.5
335 1 0.951635 0.0334691 0.5
51 1 0.935466 0.476294 0.5
283 1 0.915599 0.0777604 0.5
318 1 0.885146 0.117463 0.5
27 1 0.966421 0.0808409 0.5
312 1 0.776484 0.107725 0.5
26 1 0.799513 0.154687 0.5
32 1 0.82775 0.109811 0.5
36 1 0.907702 0.166879 0.5
122 1 0.93588 0.125673 0.5
52 1 0.985247 0.477442 0.5
332 1 0.958939 0.173748 0.5
316 1 0.774923 0.21222 0.5
31 1 0.823174 0.202584 0.5
210 1 0.853694 0.159632 0.5
329 1 0.873224 0.219859 0.5
333 1 0.931506 0.221411 0.5
33 1 0.985354 0.219829 0.5
352 1 0.884188 0.470751 0.5
323 1 0.804379 0.254595 0.5
331 1 0.851581 0.277141 0.5
328 1 0.902379 0.263983 0.5
28 1 0.952532 0.268925 0.5
322 1 0.772645 0.294866 0.5
242 1 0.82144 0.318325 0.5
347 1 0.871557 0.326468 0.5
41 1 0.926678 0.321784 0.5
345 1 0.976346 0.3281 0.5
250 1 0.789273 0.359893 0.5
339 1 0.841488 0.365199 0.5
340 1 0.894131 0.377775 0.5
334 1 0.943196 0.36959 0.5
344 1 0.996584 0.372205 0.5
258 1 0.757033 0.397962 0.5
351 1 0.808496 0.412942 0.5
341 1 0.86931 0.421696 0.5
343 1 0.922427 0.42448 0.5
338 1 0.973063 0.425674 0.5
348 1 0.777559 0.45652 0.5
327 1 0.80493 0.0620905 0.5
320 1 0.98669 0.13432 0.5
220 1 0.750474 0.153246 0.5
354 1 0.850215 0.509077 0.5
349 1 0.905975 0.519446 0.5
359 1 0.961656 0.521616 0.5
254 1 0.77025 0.546792 0.5
362 1 0.820651 0.549047 0.5
355 1 0.874884 0.554976 0.5
62 1 0.927665 0.563137 0.5
61 1 0.978181 0.57111 0.5
249 1 0.797937 0.594025 0.5
375 1 0.901565 0.610614 0.5
365 1 0.952415 0.613552 0.5
361 1 0.762266 0.631487 0.5
367 1 0.8535 0.606325 0.5
368 1 0.756295 0.727294 0.5
363 1 0.820399 0.643615 0.5
260 1 0.871081 0.653213 0.5
71 1 0.921297 0.655654 0.5
1 1 0.978853 0.660387 0.5
366 1 0.782771 0.680517 0.5
369 1 0.835041 0.692032 0.5
265 1 0.887874 0.702298 0.5
78 1 0.942556 0.700614 0.5
315 1 0.976884 0.991868 0.5
394 1 0.815248 0.73793 0.5
67 1 0.86475 0.747799 0.5
385 1 0.916459 0.741933 0.5
384 1 0.966691 0.753075 0.5
290 1 0.780025 0.774449 0.5
386 1 0.834766 0.79033 0.5
77 1 0.891768 0.790773 0.5
390 1 0.941557 0.799553 0.5
307 1 0.926839 0.990318 0.5
96 1 0.801896 0.830771 0.5
379 1 0.853848 0.840833 0.5
391 1 0.907273 0.84151 0.5
387 1 0.962944 0.849078 0.5
399 1 0.781016 0.876986 0.5
395 1 0.832366 0.886707 0.5
305 1 0.888456 0.890713 0.5
388 1 0.936404 0.88976 0.5
215 1 0.989758 0.89714 0.5
306 1 0.805095 0.930874 0.5
304 1 0.854572 0.935306 0.5
317 1 0.904409 0.941621 0.5
308 1 0.95515 0.947455 0.5
382 1 0.768544 0.96777 0.5
324 1 0.819548 0.976473 0.5
311 1 0.877864 0.987705 0.5
389 1 0.993756 0.805724 0.5
309 1 0.996442 0.709305 0.5
358 1 0.797688 0.502694 0.5
400 1 0.755558 0.832498 0.5
