ITEM: TIMESTEP
100000
ITEM: NUMBER OF ATOMS
400
ITEM: BOX BOUNDS pp pp pp
0.0000000000000000e+00 1.9245008972987524e+01
0.0000000000000000e+00 1.9245008972987524e+01
-4.8112522432468813e-01 4.8112522432468813e-01
ITEM: ATOMS id type xs ys zs
315 1 0.0122478 0.00401959 0.5
2 1 0.0672197 0.00821424 0.5
311 1 0.114405 0.020057 0.5
96 1 0.169448 0.0218646 0.5
10 1 0.221184 0.0249376 0.5
317 1 0.0321828 0.0524131 0.5
4 1 0.0825876 0.0641656 0.5
198 1 0.14127 0.06641 0.5
11 1 0.00231921 0.0959569 0.5
307 1 0.0527539 0.105491 0.5
116 1 0.195613 0.0718705 0.5
195 1 0.243096 0.0800514 0.5
1 1 0.112232 0.109148 0.5
14 1 0.168041 0.11725 0.5
3 1 0.217426 0.12365 0.5
17 1 0.0285587 0.150856 0.5
13 1 0.0824711 0.147969 0.5
328 1 0.134083 0.164206 0.5
8 1 0.185557 0.166594 0.5
21 1 0.236375 0.175505 0.5
320 1 0.0508144 0.195754 0.5
343 1 0.103863 0.207074 0.5
340 1 0.0220819 0.235362 0.5
12 1 0.152858 0.216378 0.5
25 1 0.20329 0.228465 0.5
44 1 0.00205259 0.28292 0.5
22 1 0.0758207 0.251265 0.5
333 1 0.127407 0.261251 0.5
23 1 0.174327 0.271194 0.5
114 1 0.225492 0.274002 0.5
329 1 0.0498497 0.293747 0.5
28 1 0.0967684 0.297348 0.5
327 1 0.147096 0.315345 0.5
18 1 0.20291 0.318924 0.5
34 1 0.0121482 0.335521 0.5
45 1 0.0650715 0.345435 0.5
330 1 0.0345442 0.38381 0.5
325 1 0.1138 0.357354 0.5
35 1 0.169677 0.360196 0.5
132 1 0.222303 0.364251 0.5
335 1 0.0864852 0.404944 0.5
29 1 0.140137 0.40293 0.5
136 1 0.188465 0.409848 0.5
128 1 0.243478 0.416385 0.5
43 1 0.00841194 0.429333 0.5
40 1 0.0596608 0.44599 0.5
151 1 0.108652 0.452175 0.5
49 1 0.160375 0.453218 0.5
55 1 0.211918 0.459498 0.5
62 1 0.0234678 0.486301 0.5
54 1 0.0752016 0.494953 0.5
59 1 0.128478 0.499504 0.5
146 1 0.1826 0.502127 0.5
137 1 0.237643 0.501625 0.5
48 1 0.044079 0.536529 0.5
58 1 0.101042 0.541733 0.5
156 1 0.147624 0.552995 0.5
149 1 0.200039 0.54953 0.5
71 1 0.0196521 0.579793 0.5
68 1 0.0713629 0.582367 0.5
64 1 0.118574 0.599001 0.5
167 1 0.176726 0.595069 0.5
157 1 0.227009 0.598341 0.5
66 1 0.0353811 0.630013 0.5
65 1 0.0854578 0.635448 0.5
67 1 0.0103408 0.675427 0.5
70 1 0.139988 0.645168 0.5
161 1 0.200153 0.643862 0.5
166 1 0.249546 0.64531 0.5
73 1 0.0607347 0.679124 0.5
69 1 0.112629 0.686446 0.5
171 1 0.163759 0.693904 0.5
176 1 0.214332 0.690286 0.5
79 1 0.0313315 0.719872 0.5
74 1 0.0814232 0.73026 0.5
75 1 0.131462 0.737483 0.5
181 1 0.192486 0.734437 0.5
179 1 0.241825 0.737449 0.5
72 1 0.00702897 0.770742 0.5
84 1 0.0588886 0.777951 0.5
80 1 0.111092 0.781874 0.5
85 1 0.161244 0.786307 0.5
90 1 0.209643 0.788856 0.5
78 1 0.0316528 0.826079 0.5
88 1 0.0803579 0.825609 0.5
87 1 0.132364 0.832975 0.5
98 1 0.184949 0.833149 0.5
89 1 0.236425 0.832432 0.5
86 1 0.0563069 0.870386 0.5
83 1 0.104707 0.881302 0.5
93 1 0.154032 0.879708 0.5
81 1 0.211103 0.876065 0.5
76 1 0.0172916 0.916043 0.5
9 1 0.0695457 0.920063 0.5
91 1 0.128915 0.927569 0.5
100 1 0.178949 0.920474 0.5
393 1 0.0386263 0.961269 0.5
191 1 0.231534 0.931613 0.5
305 1 0.0941184 0.96693 0.5
395 1 0.145329 0.978887 0.5
5 1 0.197244 0.975006 0.5
15 1 0.246054 0.98017 0.5
120 1 0.322303 0.0333851 0.5
108 1 0.380245 0.0348912 0.5
19 1 0.272396 0.0378418 0.5
124 1 0.43092 0.0405454 0.5
125 1 0.476833 0.0575351 0.5
32 1 0.292864 0.085036 0.5
27 1 0.344077 0.0792675 0.5
104 1 0.404655 0.0819996 0.5
212 1 0.451342 0.103151 0.5
211 1 0.273237 0.131675 0.5
20 1 0.327052 0.12714 0.5
111 1 0.376317 0.129477 0.5
113 1 0.347509 0.175342 0.5
115 1 0.426082 0.157188 0.5
109 1 0.477167 0.152639 0.5
197 1 0.291668 0.180095 0.5
105 1 0.399348 0.198451 0.5
117 1 0.452874 0.198607 0.5
106 1 0.261603 0.223659 0.5
24 1 0.320437 0.220151 0.5
110 1 0.36736 0.236191 0.5
122 1 0.425502 0.243413 0.5
226 1 0.474782 0.247492 0.5
39 1 0.273592 0.274152 0.5
30 1 0.32616 0.277666 0.5
121 1 0.38503 0.283433 0.5
131 1 0.254983 0.320791 0.5
118 1 0.442819 0.292054 0.5
231 1 0.491651 0.295971 0.5
126 1 0.306241 0.322918 0.5
123 1 0.360799 0.329943 0.5
133 1 0.412018 0.338386 0.5
127 1 0.46537 0.339568 0.5
142 1 0.274504 0.371871 0.5
143 1 0.32632 0.377963 0.5
145 1 0.380347 0.378869 0.5
50 1 0.43593 0.38333 0.5
251 1 0.486346 0.385568 0.5
153 1 0.294485 0.418041 0.5
60 1 0.34877 0.421918 0.5
155 1 0.267495 0.461331 0.5
170 1 0.398864 0.432056 0.5
140 1 0.452671 0.432306 0.5
141 1 0.318232 0.464759 0.5
241 1 0.370442 0.472313 0.5
247 1 0.424906 0.477709 0.5
245 1 0.476012 0.478535 0.5
152 1 0.287662 0.505417 0.5
147 1 0.340222 0.51366 0.5
261 1 0.391576 0.520513 0.5
252 1 0.45007 0.521932 0.5
160 1 0.49969 0.531662 0.5
154 1 0.251534 0.552607 0.5
169 1 0.302186 0.552089 0.5
162 1 0.358663 0.56326 0.5
158 1 0.411602 0.564827 0.5
150 1 0.461714 0.569749 0.5
159 1 0.281772 0.606427 0.5
148 1 0.333835 0.605189 0.5
168 1 0.38229 0.608771 0.5
266 1 0.432095 0.621827 0.5
262 1 0.482062 0.615047 0.5
165 1 0.306019 0.652243 0.5
163 1 0.356522 0.65259 0.5
164 1 0.405783 0.666469 0.5
272 1 0.459391 0.663304 0.5
173 1 0.272257 0.692649 0.5
175 1 0.323063 0.700874 0.5
276 1 0.376659 0.711142 0.5
271 1 0.430678 0.710451 0.5
281 1 0.485336 0.712383 0.5
172 1 0.292515 0.740164 0.5
190 1 0.34592 0.746624 0.5
185 1 0.40299 0.757957 0.5
286 1 0.45559 0.75567 0.5
177 1 0.259367 0.788257 0.5
95 1 0.312917 0.787962 0.5
174 1 0.369431 0.793374 0.5
184 1 0.424553 0.803545 0.5
287 1 0.476076 0.806533 0.5
192 1 0.283969 0.833791 0.5
183 1 0.338084 0.831428 0.5
178 1 0.389796 0.843684 0.5
189 1 0.44558 0.84901 0.5
99 1 0.260483 0.887552 0.5
101 1 0.314465 0.878053 0.5
188 1 0.363793 0.888714 0.5
102 1 0.415445 0.889776 0.5
300 1 0.499198 0.862156 0.5
295 1 0.464378 0.899949 0.5
182 1 0.279151 0.940972 0.5
186 1 0.330178 0.929351 0.5
193 1 0.384994 0.938628 0.5
180 1 0.434566 0.947917 0.5
103 1 0.48498 0.950714 0.5
199 1 0.298384 0.986151 0.5
107 1 0.351335 0.9912 0.5
201 1 0.404233 0.990034 0.5
112 1 0.457124 0.997554 0.5
292 1 0.50614 0.0109952 0.5
218 1 0.557067 0.0078408 0.5
213 1 0.622498 0.0236424 0.5
306 1 0.675919 0.0225142 0.5
298 1 0.730219 0.0260136 0.5
216 1 0.527054 0.0589215 0.5
217 1 0.583131 0.0636663 0.5
194 1 0.500198 0.100679 0.5
222 1 0.635359 0.0752849 0.5
208 1 0.692213 0.0791343 0.5
223 1 0.743689 0.0759173 0.5
227 1 0.550108 0.11084 0.5
224 1 0.599404 0.11215 0.5
337 1 0.664243 0.126121 0.5
316 1 0.714832 0.131314 0.5
221 1 0.53139 0.157483 0.5
219 1 0.581295 0.15923 0.5
220 1 0.632929 0.165277 0.5
314 1 0.685317 0.17855 0.5
312 1 0.737398 0.177404 0.5
130 1 0.505056 0.201911 0.5
243 1 0.559969 0.207106 0.5
228 1 0.606662 0.214028 0.5
119 1 0.525816 0.247619 0.5
230 1 0.655673 0.22253 0.5
323 1 0.707219 0.222983 0.5
237 1 0.577509 0.255093 0.5
129 1 0.627667 0.262017 0.5
234 1 0.680252 0.265513 0.5
235 1 0.733639 0.271 0.5
246 1 0.546277 0.295311 0.5
238 1 0.600394 0.304324 0.5
232 1 0.652112 0.308891 0.5
229 1 0.703193 0.316958 0.5
134 1 0.515422 0.346248 0.5
236 1 0.566962 0.347677 0.5
233 1 0.6191 0.348639 0.5
135 1 0.538445 0.392731 0.5
248 1 0.670714 0.358185 0.5
331 1 0.725281 0.365089 0.5
139 1 0.587103 0.397842 0.5
144 1 0.637925 0.399948 0.5
244 1 0.690253 0.404958 0.5
346 1 0.745166 0.411441 0.5
138 1 0.502383 0.434832 0.5
242 1 0.558798 0.447875 0.5
249 1 0.61289 0.449563 0.5
341 1 0.663802 0.454645 0.5
255 1 0.71804 0.453063 0.5
239 1 0.531666 0.493609 0.5
254 1 0.580422 0.493769 0.5
265 1 0.631032 0.498728 0.5
250 1 0.690444 0.49946 0.5
352 1 0.744947 0.499444 0.5
253 1 0.550194 0.540245 0.5
257 1 0.601531 0.541165 0.5
264 1 0.660935 0.541848 0.5
269 1 0.711606 0.545722 0.5
256 1 0.519186 0.578625 0.5
268 1 0.577141 0.585259 0.5
263 1 0.626679 0.586077 0.5
274 1 0.683529 0.587152 0.5
366 1 0.73475 0.599686 0.5
267 1 0.538342 0.623709 0.5
258 1 0.600838 0.630457 0.5
278 1 0.512959 0.668682 0.5
283 1 0.56832 0.670664 0.5
280 1 0.649159 0.642902 0.5
363 1 0.700144 0.649135 0.5
371 1 0.619023 0.687467 0.5
367 1 0.66895 0.68728 0.5
373 1 0.725201 0.692959 0.5
277 1 0.53946 0.720352 0.5
279 1 0.58714 0.7305 0.5
273 1 0.641261 0.732224 0.5
377 1 0.696232 0.73783 0.5
376 1 0.746648 0.747174 0.5
289 1 0.507383 0.766447 0.5
282 1 0.557366 0.77431 0.5
285 1 0.612878 0.776752 0.5
284 1 0.668185 0.784225 0.5
187 1 0.52676 0.811589 0.5
381 1 0.718354 0.790053 0.5
294 1 0.579563 0.830867 0.5
288 1 0.627829 0.826291 0.5
290 1 0.680201 0.831775 0.5
374 1 0.737385 0.839609 0.5
291 1 0.550028 0.870678 0.5
205 1 0.60342 0.874255 0.5
204 1 0.653445 0.871127 0.5
209 1 0.705311 0.882671 0.5
293 1 0.52177 0.914089 0.5
202 1 0.571838 0.922056 0.5
200 1 0.626802 0.92539 0.5
207 1 0.536717 0.960988 0.5
210 1 0.679864 0.929725 0.5
303 1 0.72813 0.934091 0.5
214 1 0.596162 0.972799 0.5
206 1 0.647295 0.981301 0.5
296 1 0.696611 0.976558 0.5
321 1 0.782515 0.0356051 0.5
310 1 0.838144 0.0356853 0.5
6 1 0.962252 0.00358554 0.5
400 1 0.894948 0.0463889 0.5
322 1 0.983247 0.0479339 0.5
297 1 0.814653 0.0824515 0.5
390 1 0.8722 0.0898348 0.5
309 1 0.924404 0.0881958 0.5
308 1 0.769152 0.124628 0.5
399 1 0.823182 0.134548 0.5
7 1 0.872936 0.139446 0.5
26 1 0.925011 0.142254 0.5
319 1 0.97827 0.139746 0.5
215 1 0.791695 0.172969 0.5
324 1 0.839086 0.182948 0.5
334 1 0.887465 0.187403 0.5
47 1 0.942112 0.191925 0.5
313 1 0.994314 0.190774 0.5
41 1 0.757068 0.226323 0.5
332 1 0.812289 0.224461 0.5
16 1 0.861898 0.22835 0.5
318 1 0.917846 0.239488 0.5
31 1 0.966436 0.237598 0.5
240 1 0.788851 0.268624 0.5
326 1 0.838371 0.2703 0.5
349 1 0.894171 0.284625 0.5
354 1 0.949984 0.283997 0.5
344 1 0.753208 0.318216 0.5
225 1 0.810217 0.318019 0.5
336 1 0.861889 0.32606 0.5
339 1 0.911045 0.334819 0.5
33 1 0.96253 0.333876 0.5
342 1 0.779393 0.36831 0.5
351 1 0.832102 0.366585 0.5
345 1 0.882351 0.376526 0.5
36 1 0.930858 0.380591 0.5
38 1 0.98458 0.377847 0.5
260 1 0.79894 0.413763 0.5
347 1 0.850244 0.418061 0.5
37 1 0.899633 0.425166 0.5
46 1 0.956543 0.42762 0.5
259 1 0.769469 0.453487 0.5
348 1 0.82231 0.46142 0.5
338 1 0.873166 0.471571 0.5
355 1 0.926098 0.468619 0.5
63 1 0.976425 0.47442 0.5
350 1 0.793997 0.507392 0.5
353 1 0.843993 0.515384 0.5
52 1 0.892583 0.518275 0.5
53 1 0.943489 0.516982 0.5
57 1 0.993829 0.528115 0.5
361 1 0.764772 0.552482 0.5
356 1 0.813513 0.557171 0.5
275 1 0.863914 0.565491 0.5
42 1 0.920197 0.562229 0.5
364 1 0.78418 0.603764 0.5
270 1 0.83652 0.605438 0.5
51 1 0.969265 0.572942 0.5
357 1 0.886438 0.612169 0.5
358 1 0.935606 0.617237 0.5
56 1 0.987532 0.620704 0.5
362 1 0.757919 0.648225 0.5
368 1 0.808498 0.655075 0.5
360 1 0.859475 0.664812 0.5
359 1 0.910534 0.666245 0.5
370 1 0.959194 0.677453 0.5
372 1 0.775532 0.699543 0.5
369 1 0.826962 0.710223 0.5
365 1 0.877297 0.710752 0.5
375 1 0.926766 0.717287 0.5
61 1 0.978231 0.725303 0.5
382 1 0.797764 0.753093 0.5
384 1 0.846014 0.759029 0.5
380 1 0.906545 0.765572 0.5
379 1 0.95669 0.771179 0.5
301 1 0.770106 0.802886 0.5
383 1 0.820445 0.806364 0.5
388 1 0.872914 0.802901 0.5
386 1 0.928161 0.814363 0.5
77 1 0.978072 0.820098 0.5
378 1 0.78755 0.850712 0.5
387 1 0.842951 0.850154 0.5
82 1 0.895269 0.856117 0.5
391 1 0.754952 0.890508 0.5
94 1 0.947312 0.864229 0.5
92 1 0.996433 0.866547 0.5
299 1 0.808686 0.895043 0.5
396 1 0.864332 0.898756 0.5
389 1 0.916132 0.908638 0.5
394 1 0.96535 0.912061 0.5
302 1 0.780571 0.940803 0.5
397 1 0.834753 0.94374 0.5
392 1 0.888982 0.950644 0.5
97 1 0.939211 0.95852 0.5
196 1 0.987122 0.959013 0.5
203 1 0.754063 0.982143 0.5
398 1 0.804766 0.987401 0.5
304 1 0.856541 0.98979 0.5
385 1 0.90611 0.998377 0.5
