ITEM: TIMESTEP
100000
ITEM: NUMBER OF ATOMS
400
ITEM: BOX BOUNDS pp pp pp
0.0000000000000000e+00 1.9425717247145283e+01
0.0000000000000000e+00 1.9425717247145283e+01
-4.8564293117863205e-01 4.8564293117863205e-01
ITEM: ATOMS id type xs ys zs
17 1 0.029443 0.0370084 0.5
189 1 0.0961242 0.0407994 0.5
117 1 0.144196 0.0303208 0.5
141 1 0.22391 0.429486 0.5
199 1 0.120613 0.0833971 0.5
105 1 0.183552 0.0645634 0.5
107 1 0.231107 0.056871 0.5
400 1 0.00993267 0.0873576 0.5
20 1 0.0597707 0.0828326 0.5
196 1 0.156163 0.123315 0.5
192 1 0.202223 0.108082 0.5
69 1 0.208288 0.480522 0.5
312 1 0.0385953 0.129727 0.5
7 1 0.0988729 0.129694 0.5
311 1 0.0254126 0.180458 0.5
308 1 0.080173 0.177443 0.5
198 1 0.135794 0.168377 0.5
113 1 0.185429 0.164543 0.5
42 1 0.00700066 0.384824 0.5
301 1 0.0676147 0.232015 0.5
12 1 0.114076 0.211597 0.5
11 1 0.166414 0.207549 0.5
103 1 0.217485 0.203709 0.5
31 1 0.0172628 0.23982 0.5
314 1 0.157634 0.262522 0.5
132 1 0.210246 0.258527 0.5
9 1 0.0410355 0.284219 0.5
15 1 0.106574 0.261904 0.5
18 1 0.0777264 0.318885 0.5
16 1 0.127423 0.308227 0.5
116 1 0.18506 0.303527 0.5
35 1 0.238094 0.29527 0.5
315 1 0.0221018 0.329171 0.5
29 1 0.0631256 0.372985 0.5
137 1 0.163162 0.347249 0.5
123 1 0.219948 0.342674 0.5
200 1 0.19846 0.014283 0.5
37 1 0.113688 0.355392 0.5
40 1 0.0402315 0.421176 0.5
36 1 0.0911003 0.416204 0.5
349 1 0.14474 0.394713 0.5
30 1 0.195639 0.38765 0.5
44 1 0.0200169 0.469273 0.5
43 1 0.0698902 0.463794 0.5
350 1 0.119587 0.458159 0.5
49 1 0.173473 0.438913 0.5
112 1 0.250192 0.0116922 0.5
197 1 0.235776 0.155798 0.5
46 1 0.157585 0.495704 0.5
355 1 0.0533634 0.515525 0.5
110 1 0.211049 0.964371 0.5
55 1 0.237179 0.520522 0.5
375 1 0.031408 0.560584 0.5
359 1 0.0858226 0.553903 0.5
38 1 0.140606 0.546965 0.5
54 1 0.189905 0.537716 0.5
195 1 0.234869 0.919337 0.5
56 1 0.0663762 0.599165 0.5
360 1 0.117378 0.592646 0.5
51 1 0.180029 0.586483 0.5
136 1 0.225641 0.571106 0.5
358 1 0.20993 0.633814 0.5
84 1 0.0150939 0.609475 0.5
66 1 0.0498365 0.646883 0.5
57 1 0.113414 0.644738 0.5
61 1 0.158794 0.633005 0.5
74 1 0.236049 0.677257 0.5
346 1 0.0288107 0.696231 0.5
186 1 0.0847769 0.688897 0.5
166 1 0.135357 0.696431 0.5
370 1 0.188087 0.684557 0.5
83 1 0.0598554 0.74045 0.5
85 1 0.109067 0.741216 0.5
64 1 0.170324 0.730472 0.5
63 1 0.219961 0.724947 0.5
97 1 0.00694359 0.976451 0.5
100 1 0.191822 0.774666 0.5
27 1 0.10351 0.988657 0.5
19 1 0.0359999 0.790368 0.5
94 1 0.087246 0.788633 0.5
177 1 0.143996 0.781578 0.5
187 1 0.16932 0.825699 0.5
99 1 0.221166 0.820921 0.5
14 1 0.0123393 0.838931 0.5
95 1 0.0645679 0.833867 0.5
10 1 0.119984 0.829338 0.5
111 1 0.046086 0.878724 0.5
5 1 0.0934804 0.889245 0.5
104 1 0.148417 0.873087 0.5
183 1 0.204374 0.86812 0.5
101 1 0.0833913 0.937572 0.5
194 1 0.134766 0.920336 0.5
184 1 0.185246 0.912593 0.5
4 1 0.0568209 0.984649 0.5
22 1 0.0314742 0.929252 0.5
206 1 0.154193 0.982002 0.5
369 1 0.103292 0.50519 0.5
53 1 0.00507067 0.744141 0.5
62 1 0.246789 0.769949 0.5
24 1 0.258051 0.249834 0.5
209 1 0.429913 0.0353335 0.5
45 1 0.478506 0.45162 0.5
201 1 0.283849 0.062599 0.5
114 1 0.329936 0.046357 0.5
217 1 0.378517 0.0412534 0.5
225 1 0.46775 0.0791893 0.5
39 1 0.255809 0.384245 0.5
119 1 0.304382 0.107094 0.5
226 1 0.362563 0.0899516 0.5
331 1 0.413601 0.0845608 0.5
115 1 0.343115 0.138302 0.5
222 1 0.391936 0.134353 0.5
232 1 0.446095 0.12644 0.5
126 1 0.293742 0.153683 0.5
134 1 0.427839 0.171906 0.5
129 1 0.477785 0.16354 0.5
28 1 0.273551 0.201828 0.5
108 1 0.32363 0.193615 0.5
118 1 0.37379 0.178731 0.5
140 1 0.462254 0.214168 0.5
147 1 0.365372 0.464608 0.5
221 1 0.308494 0.241737 0.5
227 1 0.35852 0.230221 0.5
231 1 0.410196 0.217598 0.5
121 1 0.293209 0.292636 0.5
133 1 0.343528 0.279075 0.5
143 1 0.391574 0.270465 0.5
130 1 0.440685 0.26096 0.5
23 1 0.316171 0.470098 0.5
148 1 0.429018 0.307704 0.5
138 1 0.478165 0.29078 0.5
34 1 0.276807 0.340557 0.5
106 1 0.325513 0.331494 0.5
124 1 0.374183 0.323107 0.5
144 1 0.468 0.340187 0.5
47 1 0.429241 0.457678 0.5
127 1 0.305542 0.381442 0.5
122 1 0.362054 0.369983 0.5
131 1 0.41892 0.360633 0.5
142 1 0.280507 0.425818 0.5
50 1 0.349328 0.41786 0.5
33 1 0.397327 0.406227 0.5
70 1 0.448041 0.404424 0.5
48 1 0.259768 0.47493 0.5
224 1 0.489607 0.0250982 0.5
120 1 0.255298 0.106024 0.5
109 1 0.301591 0.00485888 0.5
151 1 0.297728 0.51728 0.5
157 1 0.350527 0.513483 0.5
102 1 0.254459 0.860849 0.5
152 1 0.483416 0.540488 0.5
67 1 0.275952 0.565132 0.5
68 1 0.328837 0.562743 0.5
171 1 0.377537 0.557908 0.5
167 1 0.434335 0.54848 0.5
162 1 0.361801 0.605454 0.5
165 1 0.411578 0.593176 0.5
158 1 0.466191 0.588086 0.5
261 1 0.495868 0.63849 0.5
59 1 0.308392 0.6139 0.5
164 1 0.439945 0.639958 0.5
146 1 0.403292 0.505582 0.5
52 1 0.288085 0.66933 0.5
169 1 0.340679 0.664081 0.5
182 1 0.391715 0.664236 0.5
75 1 0.321362 0.719191 0.5
173 1 0.371674 0.708428 0.5
267 1 0.42288 0.701032 0.5
65 1 0.472944 0.688685 0.5
80 1 0.272389 0.722333 0.5
175 1 0.355229 0.758825 0.5
291 1 0.409775 0.754492 0.5
253 1 0.461578 0.737158 0.5
181 1 0.298063 0.76534 0.5
282 1 0.484192 0.785239 0.5
73 1 0.278773 0.810635 0.5
188 1 0.331691 0.805672 0.5
286 1 0.382714 0.809492 0.5
178 1 0.433697 0.801327 0.5
161 1 0.306384 0.866424 0.5
2 1 0.356874 0.856982 0.5
288 1 0.411004 0.850677 0.5
180 1 0.459788 0.84337 0.5
212 1 0.401388 0.992954 0.5
193 1 0.338658 0.906037 0.5
190 1 0.393671 0.904194 0.5
179 1 0.448656 0.893846 0.5
207 1 0.451279 0.987932 0.5
191 1 0.287402 0.910832 0.5
287 1 0.259478 0.963627 0.5
211 1 0.314075 0.953835 0.5
297 1 0.367089 0.946908 0.5
216 1 0.431211 0.938953 0.5
229 1 0.481857 0.949146 0.5
235 1 0.350559 0.995397 0.5
58 1 0.257265 0.610737 0.5
156 1 0.453393 0.503211 0.5
239 1 0.662956 0.472176 0.5
300 1 0.681708 0.0335501 0.5
238 1 0.610246 0.474307 0.5
205 1 0.520461 0.0689541 0.5
204 1 0.586519 0.0594948 0.5
398 1 0.631493 0.0414625 0.5
326 1 0.66456 0.082425 0.5
215 1 0.716325 0.0735053 0.5
324 1 0.563716 0.104101 0.5
218 1 0.616517 0.100677 0.5
149 1 0.561055 0.485655 0.5
323 1 0.595433 0.148874 0.5
213 1 0.645247 0.140075 0.5
223 1 0.701873 0.131255 0.5
234 1 0.520163 0.350667 0.5
125 1 0.547743 0.15498 0.5
220 1 0.673596 0.180601 0.5
306 1 0.727334 0.174337 0.5
236 1 0.519264 0.199606 0.5
329 1 0.57463 0.199127 0.5
228 1 0.621996 0.190972 0.5
318 1 0.716526 0.224514 0.5
333 1 0.555149 0.248178 0.5
327 1 0.60812 0.24137 0.5
328 1 0.663491 0.229061 0.5
245 1 0.641833 0.276274 0.5
339 1 0.691093 0.27762 0.5
150 1 0.716569 0.463843 0.5
145 1 0.529143 0.293839 0.5
240 1 0.588457 0.285554 0.5
347 1 0.744177 0.283313 0.5
233 1 0.512429 0.117999 0.5
154 1 0.563426 0.327894 0.5
230 1 0.619009 0.328329 0.5
332 1 0.676164 0.325461 0.5
244 1 0.728112 0.329295 0.5
128 1 0.551406 0.390859 0.5
237 1 0.600127 0.381542 0.5
322 1 0.653187 0.369358 0.5
251 1 0.581461 0.432973 0.5
265 1 0.630033 0.424266 0.5
264 1 0.709368 0.38004 0.5
155 1 0.528955 0.442868 0.5
249 1 0.682214 0.426215 0.5
356 1 0.742056 0.416966 0.5
399 1 0.734669 0.0119337 0.5
210 1 0.539825 0.0245532 0.5
160 1 0.50959 0.491876 0.5
60 1 0.500231 0.401632 0.5
214 1 0.592434 0.00679484 0.5
135 1 0.507024 0.248572 0.5
241 1 0.545802 0.53606 0.5
159 1 0.593587 0.524027 0.5
271 1 0.702756 0.511492 0.5
243 1 0.647463 0.519272 0.5
153 1 0.517235 0.577378 0.5
139 1 0.573425 0.576877 0.5
255 1 0.623341 0.567655 0.5
266 1 0.674139 0.560997 0.5
296 1 0.645468 0.982853 0.5
163 1 0.549726 0.625955 0.5
168 1 0.601865 0.618267 0.5
262 1 0.654316 0.60883 0.5
364 1 0.712117 0.597087 0.5
176 1 0.535038 0.675893 0.5
256 1 0.584781 0.670991 0.5
247 1 0.632976 0.66119 0.5
277 1 0.686079 0.648404 0.5
396 1 0.694755 0.97598 0.5
258 1 0.71484 0.697963 0.5
381 1 0.724004 0.92137 0.5
272 1 0.566487 0.729965 0.5
170 1 0.617117 0.716188 0.5
254 1 0.666213 0.705982 0.5
202 1 0.527821 0.975816 0.5
276 1 0.531355 0.766681 0.5
257 1 0.597474 0.76945 0.5
274 1 0.646466 0.753245 0.5
185 1 0.696734 0.745671 0.5
268 1 0.560568 0.812196 0.5
279 1 0.624707 0.812481 0.5
293 1 0.671797 0.797615 0.5
281 1 0.731457 0.550904 0.5
174 1 0.50905 0.836007 0.5
298 1 0.659346 0.846168 0.5
372 1 0.707499 0.834346 0.5
275 1 0.552447 0.860873 0.5
371 1 0.60485 0.856481 0.5
284 1 0.688492 0.886102 0.5
172 1 0.509219 0.722746 0.5
203 1 0.538811 0.925068 0.5
278 1 0.587253 0.90338 0.5
299 1 0.639523 0.892164 0.5
208 1 0.574698 0.96029 0.5
294 1 0.6228 0.937687 0.5
295 1 0.673429 0.933862 0.5
376 1 0.727623 0.785464 0.5
242 1 0.740241 0.64789 0.5
391 1 0.741447 0.870458 0.5
362 1 0.748083 0.739309 0.5
290 1 0.507573 0.885948 0.5
389 1 0.784281 0.0107749 0.5
348 1 0.768371 0.373338 0.5
309 1 0.927124 0.0250991 0.5
270 1 0.861312 0.494824 0.5
289 1 0.766137 0.0607135 0.5
393 1 0.819002 0.0443763 0.5
13 1 0.877159 0.0294108 0.5
397 1 0.808154 0.0913366 0.5
307 1 0.860461 0.0798744 0.5
310 1 0.912653 0.0704338 0.5
6 1 0.962779 0.0615175 0.5
321 1 0.849045 0.126621 0.5
313 1 0.900251 0.116845 0.5
319 1 0.954553 0.113103 0.5
303 1 0.797053 0.141513 0.5
302 1 0.880277 0.162566 0.5
325 1 0.93397 0.160535 0.5
338 1 0.778119 0.188119 0.5
316 1 0.831979 0.179148 0.5
305 1 0.971024 0.20112 0.5
344 1 0.817298 0.226344 0.5
219 1 0.867675 0.21416 0.5
334 1 0.920781 0.210993 0.5
317 1 0.958606 0.247205 0.5
260 1 0.854116 0.259874 0.5
41 1 0.908721 0.259129 0.5
342 1 0.767375 0.236914 0.5
320 1 0.803414 0.271628 0.5
340 1 0.887691 0.304416 0.5
345 1 0.939425 0.29877 0.5
351 1 0.782599 0.323884 0.5
357 1 0.834062 0.311015 0.5
337 1 0.919539 0.346537 0.5
25 1 0.97215 0.339106 0.5
352 1 0.914102 0.48918 0.5
250 1 0.817547 0.363766 0.5
341 1 0.870899 0.358275 0.5
335 1 0.957853 0.390094 0.5
336 1 0.797608 0.414295 0.5
343 1 0.84638 0.407997 0.5
26 1 0.905005 0.396158 0.5
330 1 0.981342 0.435919 0.5
361 1 0.830203 0.453731 0.5
367 1 0.886064 0.443051 0.5
354 1 0.933383 0.43862 0.5
246 1 0.768093 0.458905 0.5
374 1 0.962426 0.482714 0.5
21 1 0.988546 0.147432 0.5
32 1 0.986878 0.290618 0.5
1 1 0.98005 0.0174779 0.5
304 1 0.754357 0.119915 0.5
353 1 0.804558 0.499855 0.5
263 1 0.763595 0.599949 0.5
3 1 0.995719 0.88424 0.5
273 1 0.946391 0.527802 0.5
394 1 0.947422 0.981536 0.5
248 1 0.786741 0.550847 0.5
363 1 0.840065 0.54087 0.5
72 1 0.891164 0.535296 0.5
365 1 0.983946 0.570821 0.5
91 1 0.835547 0.995822 0.5
259 1 0.817432 0.59072 0.5
283 1 0.868968 0.580286 0.5
380 1 0.928393 0.576301 0.5
379 1 0.843047 0.631541 0.5
82 1 0.89873 0.62328 0.5
78 1 0.960848 0.615559 0.5
366 1 0.790554 0.642675 0.5
77 1 0.876289 0.672068 0.5
90 1 0.928707 0.662327 0.5
285 1 0.774535 0.69291 0.5
280 1 0.822889 0.679874 0.5
81 1 0.912514 0.71283 0.5
390 1 0.967727 0.700482 0.5
377 1 0.807939 0.73122 0.5
87 1 0.857332 0.717393 0.5
373 1 0.786628 0.774283 0.5
269 1 0.836536 0.772302 0.5
395 1 0.891158 0.76052 0.5
71 1 0.944455 0.756604 0.5
292 1 0.809196 0.820506 0.5
92 1 0.866701 0.812013 0.5
98 1 0.919542 0.803811 0.5
89 1 0.984018 0.794922 0.5
383 1 0.761237 0.822683 0.5
385 1 0.841758 0.860986 0.5
86 1 0.896498 0.851094 0.5
8 1 0.956353 0.840308 0.5
76 1 0.790694 0.867885 0.5
392 1 0.776806 0.914802 0.5
382 1 0.823225 0.906393 0.5
384 1 0.876438 0.897764 0.5
388 1 0.938968 0.886946 0.5
378 1 0.898505 0.979236 0.5
387 1 0.808032 0.954804 0.5
96 1 0.861408 0.946384 0.5
88 1 0.914137 0.929001 0.5
93 1 0.97871 0.934524 0.5
79 1 0.999287 0.655459 0.5
386 1 0.756881 0.963592 0.5
252 1 0.755727 0.505123 0.5
368 1 0.998905 0.514135 0.5
