
Host: gr044.hpc.nyu.edu

Timers On : Wed Nov 23 13:37:24 2022
Timers Off: Wed Nov 23 13:40:54 2022

Wall Time:      210.18 seconds

                                                       Time (seconds)
Module                                       User      System        Wall        Calls

--------------------------------------------------------------------------------------

**************************************************************************************
