ITEM: TIMESTEP
100000
ITEM: NUMBER OF ATOMS
400
ITEM: BOX BOUNDS pp pp pp
0.0000000000000000e+00 1.9802950859533485e+01
0.0000000000000000e+00 1.9802950859533485e+01
-4.9507377148833714e-01 4.9507377148833714e-01
ITEM: ATOMS id type xs ys zs
312 1 0.0114493 0.209443 0.5
32 1 0.0201676 0.463346 0.5
250 1 0.226194 0.485692 0.5
6 1 0.0307562 0.256644 0.5
314 1 0.201722 0.435662 0.5
373 1 0.11291 0.0405006 0.5
356 1 0.212754 0.0667811 0.5
185 1 0.150829 0.422212 0.5
121 1 0.00350529 0.0239075 0.5
206 1 0.0541561 0.0240065 0.5
235 1 0.166056 0.054293 0.5
178 1 0.236957 0.122423 0.5
224 1 0.0120023 0.321334 0.5
193 1 0.0794059 0.0816119 0.5
154 1 0.127804 0.0940496 0.5
10 1 0.0823365 0.129156 0.5
238 1 0.182086 0.10389 0.5
245 1 0.156616 0.00211075 0.5
129 1 0.030667 0.116837 0.5
363 1 0.141584 0.139392 0.5
376 1 0.199707 0.152466 0.5
324 1 0.12331 0.468087 0.5
81 1 0.0486612 0.17732 0.5
12 1 0.0993518 0.178938 0.5
260 1 0.161355 0.197011 0.5
369 1 0.208776 0.201932 0.5
385 1 0.172079 0.480311 0.5
131 1 0.0679952 0.223684 0.5
76 1 0.121364 0.236176 0.5
28 1 0.0666947 0.46682 0.5
252 1 0.0848045 0.276958 0.5
50 1 0.176923 0.241168 0.5
190 1 0.237239 0.240853 0.5
98 1 0.148538 0.283244 0.5
306 1 0.201945 0.283288 0.5
133 1 0.0284517 0.0627712 0.5
349 1 0.0646611 0.319484 0.5
397 1 0.111856 0.326467 0.5
226 1 0.16042 0.333137 0.5
31 1 0.213726 0.331567 0.5
360 1 0.034682 0.366627 0.5
89 1 0.0856864 0.369827 0.5
232 1 0.132906 0.374702 0.5
196 1 0.182334 0.377068 0.5
355 1 0.000507399 0.418559 0.5
142 1 0.0502433 0.414089 0.5
93 1 0.103207 0.414213 0.5
354 1 0.247962 0.294387 0.5
152 1 0.203607 0.0165959 0.5
36 1 0.236013 0.394165 0.5
233 1 0.24955 0.0331636 0.5
297 1 0.00111262 0.160234 0.5
230 1 0.0291405 0.511916 0.5
294 1 0.0397731 0.977606 0.5
72 1 0.0891827 0.514281 0.5
219 1 0.139759 0.521996 0.5
67 1 0.188309 0.528147 0.5
25 1 0.235363 0.53919 0.5
106 1 0.0546819 0.565105 0.5
99 1 0.102159 0.572147 0.5
204 1 0.15315 0.571334 0.5
200 1 0.203067 0.57612 0.5
35 1 0.0136614 0.736975 0.5
292 1 0.0663353 0.615216 0.5
371 1 0.119398 0.61678 0.5
191 1 0.173149 0.620766 0.5
310 1 0.221549 0.625712 0.5
348 1 0.0330902 0.650801 0.5
303 1 0.0892838 0.658693 0.5
65 1 0.1373 0.666032 0.5
393 1 0.186799 0.671191 0.5
84 1 0.234694 0.674344 0.5
272 1 0.0522213 0.694858 0.5
387 1 0.104386 0.709946 0.5
201 1 0.152862 0.724403 0.5
156 1 0.204161 0.721144 0.5
284 1 0.247345 0.814382 0.5
71 1 0.0631876 0.757267 0.5
56 1 0.115478 0.757893 0.5
62 1 0.169181 0.770605 0.5
237 1 0.223009 0.767123 0.5
228 1 0.0272684 0.792488 0.5
236 1 0.0778288 0.804327 0.5
319 1 0.141826 0.813656 0.5
258 1 0.192446 0.819394 0.5
141 1 0.0216783 0.928324 0.5
208 1 0.197701 0.965296 0.5
340 1 0.0498021 0.844887 0.5
203 1 0.10067 0.84867 0.5
64 1 0.211215 0.874538 0.5
117 1 0.019575 0.601772 0.5
211 1 0.05857 0.893681 0.5
394 1 0.163242 0.866759 0.5
244 1 0.116952 0.895792 0.5
285 1 0.176526 0.913948 0.5
34 1 0.22403 0.922328 0.5
95 1 0.00717023 0.879138 0.5
335 1 0.0818065 0.940894 0.5
287 1 0.133298 0.946019 0.5
100 1 0.246579 0.968344 0.5
40 1 0.102564 0.990766 0.5
37 1 0.358892 0.456572 0.5
9 1 0.299782 0.0367257 0.5
70 1 0.349589 0.0402539 0.5
330 1 0.493856 0.30463 0.5
214 1 0.316979 0.0813241 0.5
97 1 0.412262 0.0452455 0.5
175 1 0.487863 0.437938 0.5
313 1 0.380269 0.0826094 0.5
39 1 0.433705 0.0961444 0.5
42 1 0.488649 0.100286 0.5
143 1 0.252814 0.443606 0.5
111 1 0.346297 0.121531 0.5
29 1 0.402207 0.136499 0.5
176 1 0.313596 0.169327 0.5
21 1 0.361188 0.176235 0.5
14 1 0.449443 0.141369 0.5
4 1 0.264401 0.346025 0.5
375 1 0.442718 0.427875 0.5
240 1 0.327869 0.216945 0.5
334 1 0.414026 0.187294 0.5
20 1 0.45983 0.200013 0.5
116 1 0.286983 0.128936 0.5
229 1 0.379572 0.228857 0.5
271 1 0.426294 0.238926 0.5
126 1 0.295218 0.253694 0.5
43 1 0.342189 0.267107 0.5
120 1 0.391327 0.27851 0.5
370 1 0.474933 0.248305 0.5
325 1 0.437827 0.29212 0.5
239 1 0.30433 0.450232 0.5
68 1 0.297985 0.306936 0.5
169 1 0.351119 0.315827 0.5
144 1 0.400504 0.329383 0.5
264 1 0.454769 0.343318 0.5
205 1 0.407114 0.4738 0.5
74 1 0.311258 0.356861 0.5
26 1 0.368479 0.367474 0.5
273 1 0.418364 0.376024 0.5
44 1 0.275843 0.211785 0.5
7 1 0.475575 0.38685 0.5
49 1 0.289051 0.399263 0.5
315 1 0.342588 0.410975 0.5
384 1 0.391672 0.417996 0.5
216 1 0.454155 0.4813 0.5
316 1 0.324139 0.495754 0.5
279 1 0.26806 0.0797505 0.5
27 1 0.468593 0.0543813 0.5
188 1 0.450698 0.00719618 0.5
298 1 0.49268 0.159873 0.5
177 1 0.250828 0.168737 0.5
55 1 0.277078 0.494579 0.5
276 1 0.259425 0.860551 0.5
184 1 0.342173 0.993922 0.5
198 1 0.473492 0.668465 0.5
282 1 0.421023 0.522854 0.5
256 1 0.472653 0.529562 0.5
115 1 0.285251 0.545934 0.5
171 1 0.332359 0.560338 0.5
251 1 0.383674 0.560751 0.5
344 1 0.434223 0.570674 0.5
181 1 0.479835 0.818204 0.5
189 1 0.301193 0.601933 0.5
41 1 0.352955 0.605083 0.5
139 1 0.403525 0.608876 0.5
278 1 0.452085 0.617808 0.5
267 1 0.267838 0.637967 0.5
136 1 0.32455 0.649886 0.5
179 1 0.374215 0.650674 0.5
309 1 0.423464 0.656483 0.5
57 1 0.463749 0.912853 0.5
362 1 0.2869 0.686493 0.5
13 1 0.345788 0.694551 0.5
119 1 0.397638 0.714141 0.5
174 1 0.487891 0.96461 0.5
3 1 0.447197 0.708017 0.5
277 1 0.304507 0.731929 0.5
149 1 0.353714 0.742135 0.5
80 1 0.418415 0.76255 0.5
227 1 0.468752 0.765689 0.5
396 1 0.271805 0.774115 0.5
19 1 0.321807 0.778662 0.5
138 1 0.372612 0.789145 0.5
311 1 0.423047 0.812359 0.5
161 1 0.295914 0.819629 0.5
63 1 0.372068 0.509677 0.5
199 1 0.349226 0.836545 0.5
336 1 0.393077 0.857847 0.5
59 1 0.44608 0.856944 0.5
288 1 0.496373 0.877582 0.5
381 1 0.309075 0.869467 0.5
301 1 0.364533 0.903708 0.5
359 1 0.414429 0.904912 0.5
222 1 0.496881 0.714055 0.5
262 1 0.275232 0.916882 0.5
69 1 0.323248 0.948108 0.5
383 1 0.386281 0.947301 0.5
135 1 0.254517 0.588425 0.5
366 1 0.293835 0.988201 0.5
166 1 0.435733 0.95281 0.5
101 1 0.253741 0.727146 0.5
254 1 0.492572 0.578582 0.5
243 1 0.394325 0.99639 0.5
382 1 0.510663 0.353174 0.5
257 1 0.515775 0.0459194 0.5
353 1 0.609928 0.0229172 0.5
180 1 0.570751 0.0550102 0.5
88 1 0.654836 0.0392508 0.5
104 1 0.707908 0.0338991 0.5
51 1 0.559413 0.00693405 0.5
398 1 0.613361 0.0784654 0.5
146 1 0.662273 0.0924519 0.5
339 1 0.71163 0.0883948 0.5
102 1 0.579114 0.116544 0.5
145 1 0.624726 0.131972 0.5
173 1 0.671658 0.140797 0.5
15 1 0.543957 0.155493 0.5
367 1 0.599406 0.171725 0.5
300 1 0.645385 0.191454 0.5
361 1 0.721383 0.138392 0.5
293 1 0.694448 0.192044 0.5
103 1 0.522874 0.256697 0.5
225 1 0.561659 0.215018 0.5
109 1 0.608725 0.226451 0.5
137 1 0.656814 0.239432 0.5
114 1 0.707268 0.25659 0.5
329 1 0.502809 0.488828 0.5
270 1 0.572418 0.265333 0.5
281 1 0.620377 0.273228 0.5
132 1 0.671102 0.293098 0.5
24 1 0.544379 0.308605 0.5
299 1 0.732426 0.30426 0.5
346 1 0.591484 0.317089 0.5
75 1 0.644764 0.337545 0.5
213 1 0.694733 0.338346 0.5
108 1 0.560498 0.358299 0.5
66 1 0.607689 0.370478 0.5
342 1 0.668237 0.384096 0.5
347 1 0.716534 0.395304 0.5
390 1 0.52313 0.40538 0.5
197 1 0.572134 0.407372 0.5
130 1 0.627903 0.416916 0.5
158 1 0.541295 0.453421 0.5
352 1 0.59185 0.457115 0.5
209 1 0.676629 0.431035 0.5
220 1 0.730474 0.444105 0.5
246 1 0.640777 0.463929 0.5
308 1 0.692029 0.474068 0.5
23 1 0.744029 0.182252 0.5
296 1 0.537645 0.0932494 0.5
388 1 0.512081 0.208999 0.5
266 1 0.522433 0.539987 0.5
253 1 0.578895 0.546435 0.5
162 1 0.633646 0.562674 0.5
338 1 0.722211 0.511598 0.5
202 1 0.691339 0.562163 0.5
122 1 0.743648 0.560901 0.5
47 1 0.600142 0.955384 0.5
351 1 0.548129 0.593035 0.5
163 1 0.599788 0.595443 0.5
159 1 0.65934 0.606255 0.5
358 1 0.500313 0.628619 0.5
368 1 0.571307 0.637733 0.5
255 1 0.707698 0.605844 0.5
118 1 0.628226 0.645885 0.5
345 1 0.685332 0.65319 0.5
326 1 0.736732 0.658375 0.5
170 1 0.530998 0.677947 0.5
379 1 0.58507 0.686678 0.5
155 1 0.653364 0.69161 0.5
328 1 0.701867 0.699638 0.5
165 1 0.553695 0.503318 0.5
221 1 0.552406 0.72964 0.5
2 1 0.604829 0.731086 0.5
247 1 0.66329 0.516392 0.5
341 1 0.653432 0.73993 0.5
261 1 0.707847 0.747887 0.5
61 1 0.520441 0.765477 0.5
286 1 0.568308 0.781652 0.5
92 1 0.617956 0.780573 0.5
210 1 0.531393 0.81791 0.5
186 1 0.57852 0.829242 0.5
265 1 0.663247 0.787897 0.5
215 1 0.727366 0.79786 0.5
17 1 0.696139 0.982077 0.5
343 1 0.545105 0.867771 0.5
147 1 0.636961 0.828067 0.5
96 1 0.692918 0.834182 0.5
83 1 0.605723 0.876309 0.5
389 1 0.660377 0.87477 0.5
248 1 0.715559 0.891553 0.5
386 1 0.511953 0.923046 0.5
148 1 0.568634 0.911729 0.5
322 1 0.63284 0.920002 0.5
79 1 0.645408 0.986542 0.5
30 1 0.683699 0.93085 0.5
274 1 0.552939 0.955556 0.5
365 1 0.741813 0.946363 0.5
46 1 0.616971 0.509978 0.5
157 1 0.746455 0.995999 0.5
112 1 0.742216 0.847768 0.5
357 1 0.989259 0.0925051 0.5
187 1 0.961349 0.0492336 0.5
268 1 0.937177 0.00787089 0.5
151 1 0.813109 0.106244 0.5
113 1 0.877915 0.0852288 0.5
378 1 0.857796 0.0287482 0.5
54 1 0.905035 0.0451066 0.5
327 1 0.795639 0.00836262 0.5
317 1 0.860216 0.135651 0.5
212 1 0.931343 0.092474 0.5
372 1 0.90955 0.142259 0.5
160 1 0.763284 0.0524063 0.5
331 1 0.790909 0.152196 0.5
182 1 0.834657 0.176852 0.5
374 1 0.88271 0.181541 0.5
218 1 0.94246 0.180068 0.5
283 1 0.957783 0.135235 0.5
242 1 0.783701 0.217928 0.5
90 1 0.841664 0.223418 0.5
291 1 0.914352 0.22119 0.5
307 1 0.960397 0.224833 0.5
124 1 0.758305 0.26047 0.5
167 1 0.808687 0.260195 0.5
295 1 0.88425 0.272444 0.5
128 1 0.934723 0.271151 0.5
168 1 0.78472 0.306921 0.5
380 1 0.839813 0.307938 0.5
86 1 0.90442 0.316278 0.5
87 1 0.981933 0.267944 0.5
22 1 0.882128 0.489305 0.5
1 1 0.801551 0.357241 0.5
231 1 0.874802 0.352773 0.5
217 1 0.961938 0.317722 0.5
172 1 0.930697 0.363305 0.5
377 1 0.815982 0.0531585 0.5
8 1 0.76789 0.406556 0.5
223 1 0.840381 0.389017 0.5
337 1 0.984097 0.362664 0.5
94 1 0.81275 0.428289 0.5
45 1 0.892023 0.398949 0.5
127 1 0.95303 0.405144 0.5
323 1 0.770114 0.472065 0.5
107 1 0.862379 0.442132 0.5
259 1 0.909995 0.447527 0.5
399 1 0.960969 0.454895 0.5
33 1 0.822143 0.476771 0.5
150 1 0.761215 0.110678 0.5
16 1 0.75221 0.350172 0.5
5 1 0.778583 0.519415 0.5
125 1 0.891856 0.992289 0.5
392 1 0.994369 0.82941 0.5
350 1 0.827702 0.529274 0.5
164 1 0.88848 0.538903 0.5
134 1 0.945609 0.554232 0.5
207 1 0.97563 0.502641 0.5
249 1 0.796247 0.571435 0.5
275 1 0.85432 0.574164 0.5
318 1 0.903029 0.589447 0.5
302 1 0.92609 0.912435 0.5
53 1 0.817271 0.622692 0.5
263 1 0.870061 0.626598 0.5
123 1 0.96636 0.598031 0.5
234 1 0.783136 0.664328 0.5
364 1 0.921024 0.641649 0.5
48 1 0.980266 0.644349 0.5
333 1 0.838244 0.668047 0.5
85 1 0.891188 0.678737 0.5
305 1 0.803604 0.71061 0.5
18 1 0.86366 0.716275 0.5
192 1 0.949314 0.681758 0.5
289 1 0.958905 0.864258 0.5
91 1 0.763738 0.759305 0.5
140 1 0.917918 0.72223 0.5
194 1 0.966627 0.729143 0.5
321 1 0.815036 0.758409 0.5
82 1 0.863331 0.765318 0.5
332 1 0.920271 0.771912 0.5
110 1 0.774586 0.807037 0.5
195 1 0.835346 0.804453 0.5
241 1 0.978435 0.777929 0.5
78 1 0.933254 0.959569 0.5
11 1 0.76461 0.90417 0.5
73 1 0.885843 0.81354 0.5
290 1 0.791834 0.858398 0.5
153 1 0.841183 0.854247 0.5
320 1 0.935909 0.818406 0.5
391 1 0.796927 0.950363 0.5
105 1 0.813021 0.903954 0.5
38 1 0.864888 0.898497 0.5
400 1 0.904167 0.862552 0.5
269 1 0.974621 0.918434 0.5
280 1 0.843365 0.963462 0.5
77 1 0.888192 0.944795 0.5
60 1 0.758912 0.611957 0.5
304 1 0.976495 0.978359 0.5
395 1 0.998488 0.550567 0.5
52 1 0.924848 0.507908 0.5
183 1 0.755309 0.712281 0.5
58 1 0.995749 0.692354 0.5
