ITEM: TIMESTEP
100000
ITEM: NUMBER OF ATOMS
400
ITEM: BOX BOUNDS pp pp pp
0.0000000000000000e+00 1.9156525704423025e+01
0.0000000000000000e+00 1.9156525704423025e+01
-4.7891314261057566e-01 4.7891314261057566e-01
ITEM: ATOMS id type xs ys zs
141 1 0.1481 0.456602 0.5
394 1 0.046137 0.0240713 0.5
400 1 0.103082 0.0334653 0.5
6 1 0.0150624 0.0736904 0.5
4 1 0.154159 0.0434228 0.5
12 1 0.205141 0.0462124 0.5
1 1 0.0677965 0.0704712 0.5
22 1 0.120214 0.0812742 0.5
14 1 0.170748 0.0905937 0.5
10 1 0.225307 0.0935655 0.5
13 1 0.035532 0.12223 0.5
8 1 0.0866022 0.122701 0.5
17 1 0.143909 0.134821 0.5
15 1 0.193557 0.13782 0.5
16 1 0.0111951 0.168918 0.5
7 1 0.0631495 0.16933 0.5
19 1 0.116886 0.179768 0.5
320 1 0.0324686 0.21365 0.5
20 1 0.167205 0.181035 0.5
116 1 0.215216 0.189145 0.5
24 1 0.0840499 0.217382 0.5
28 1 0.137692 0.227886 0.5
25 1 0.190575 0.231844 0.5
29 1 0.0960438 0.458687 0.5
117 1 0.240038 0.232321 0.5
340 1 0.0591181 0.262644 0.5
21 1 0.107807 0.268103 0.5
136 1 0.159803 0.273817 0.5
30 1 0.213447 0.277878 0.5
37 1 0.0256069 0.316491 0.5
23 1 0.0742142 0.310982 0.5
55 1 0.125641 0.316557 0.5
34 1 0.180067 0.32042 0.5
131 1 0.235121 0.326457 0.5
157 1 0.199949 0.463839 0.5
32 1 0.0501273 0.362317 0.5
27 1 0.0992224 0.363979 0.5
43 1 0.150699 0.361918 0.5
39 1 0.201388 0.367006 0.5
36 1 0.0165077 0.408363 0.5
345 1 0.0650611 0.411516 0.5
151 1 0.121785 0.408492 0.5
154 1 0.180733 0.417489 0.5
60 1 0.230644 0.419955 0.5
38 1 0.0401624 0.454016 0.5
33 1 -0.000150117 0.264269 0.5
59 1 0.250962 0.467696 0.5
111 1 0.244378 0.141959 0.5
370 1 0.00809017 0.593285 0.5
64 1 0.170376 0.504432 0.5
50 1 0.219341 0.516751 0.5
53 1 0.0392885 0.550816 0.5
58 1 0.0927657 0.552116 0.5
360 1 0.146402 0.549508 0.5
65 1 0.193705 0.56264 0.5
82 1 0.0254147 0.733605 0.5
57 1 0.118969 0.505871 0.5
73 1 0.0585785 0.594272 0.5
66 1 0.11197 0.60452 0.5
84 1 0.0326471 0.642268 0.5
68 1 0.0817934 0.644111 0.5
67 1 0.163819 0.605054 0.5
63 1 0.220418 0.608332 0.5
3 1 0.134101 0.992967 0.5
70 1 0.134314 0.650029 0.5
162 1 0.183731 0.650994 0.5
172 1 0.239319 0.656489 0.5
74 1 0.0778784 0.741036 0.5
85 1 0.105499 0.697428 0.5
176 1 0.155356 0.701486 0.5
75 1 0.205898 0.697309 0.5
379 1 0.038269 0.785067 0.5
79 1 0.126443 0.745537 0.5
83 1 0.180891 0.752432 0.5
80 1 0.0979763 0.792991 0.5
89 1 0.231769 0.758458 0.5
383 1 0.0146096 0.832207 0.5
98 1 0.0688811 0.833416 0.5
96 1 0.148453 0.790844 0.5
88 1 0.19754 0.803976 0.5
395 1 0.12012 0.838791 0.5
186 1 0.175135 0.850129 0.5
181 1 0.226184 0.85083 0.5
2 1 0.0395777 0.877022 0.5
49 1 0.0673581 0.503444 0.5
388 1 0.0943455 0.882397 0.5
196 1 0.142361 0.891935 0.5
94 1 0.197804 0.900103 0.5
389 1 0.0863062 0.974117 0.5
5 1 0.0607297 0.930439 0.5
97 1 0.111122 0.931027 0.5
95 1 0.160797 0.940472 0.5
99 1 0.213091 0.948598 0.5
93 1 0.0356862 0.973476 0.5
86 1 0.0580814 0.687131 0.5
92 1 0.24637 0.899359 0.5
390 1 0.010284 0.927054 0.5
78 1 0.00675312 0.686611 0.5
54 1 0.0146912 0.498843 0.5
100 1 0.241001 0.993694 0.5
9 1 0.183731 0.997825 0.5
246 1 0.453176 0.488006 0.5
200 1 0.394781 0.00780656 0.5
110 1 0.445318 0.0156984 0.5
155 1 0.355177 0.47241 0.5
221 1 0.48938 0.117558 0.5
102 1 0.311535 0.0500745 0.5
211 1 0.361709 0.0550512 0.5
103 1 0.418858 0.0600964 0.5
216 1 0.468041 0.0613645 0.5
122 1 0.277055 0.0990051 0.5
107 1 0.330231 0.0983389 0.5
112 1 0.380469 0.102914 0.5
108 1 0.43774 0.114888 0.5
236 1 0.495743 0.351596 0.5
133 1 0.293983 0.145254 0.5
242 1 0.490169 0.446277 0.5
113 1 0.351278 0.144968 0.5
118 1 0.40223 0.152583 0.5
119 1 0.46115 0.160281 0.5
127 1 0.268149 0.189785 0.5
35 1 0.318283 0.193357 0.5
134 1 0.369275 0.194102 0.5
123 1 0.425493 0.204677 0.5
126 1 0.291042 0.235514 0.5
124 1 0.479274 0.208835 0.5
121 1 0.341389 0.241968 0.5
128 1 0.391391 0.244345 0.5
232 1 0.443035 0.250284 0.5
146 1 0.262977 0.278385 0.5
40 1 0.312582 0.287335 0.5
137 1 0.36613 0.292656 0.5
130 1 0.416443 0.29718 0.5
139 1 0.471264 0.294093 0.5
45 1 0.282774 0.326866 0.5
132 1 0.334231 0.335638 0.5
129 1 0.389242 0.340446 0.5
140 1 0.444422 0.341065 0.5
138 1 0.405161 0.480479 0.5
143 1 0.307159 0.382329 0.5
231 1 0.364083 0.385367 0.5
106 1 0.259324 0.0484344 0.5
147 1 0.281528 0.424694 0.5
156 1 0.415754 0.386703 0.5
149 1 0.465517 0.392967 0.5
152 1 0.332266 0.427452 0.5
144 1 0.388117 0.429981 0.5
145 1 0.438258 0.438134 0.5
197 1 0.344685 0.00207584 0.5
153 1 0.299931 0.472469 0.5
142 1 0.255364 0.371292 0.5
148 1 0.275843 0.515588 0.5
171 1 0.3272 0.514088 0.5
166 1 0.302983 0.562819 0.5
161 1 0.375349 0.530485 0.5
251 1 0.426921 0.53326 0.5
160 1 0.489404 0.542425 0.5
164 1 0.352604 0.575165 0.5
158 1 0.40203 0.581039 0.5
150 1 0.456544 0.586792 0.5
167 1 0.274543 0.607522 0.5
169 1 0.32363 0.615596 0.5
170 1 0.375833 0.628445 0.5
163 1 0.430883 0.628143 0.5
159 1 0.487082 0.632827 0.5
175 1 0.293001 0.660906 0.5
281 1 0.34083 0.667672 0.5
272 1 0.391748 0.676608 0.5
178 1 0.25982 0.714306 0.5
266 1 0.448116 0.681845 0.5
199 1 0.426388 0.967685 0.5
173 1 0.312381 0.708143 0.5
174 1 0.3628 0.71676 0.5
168 1 0.413247 0.725578 0.5
267 1 0.460315 0.731361 0.5
177 1 0.28531 0.757676 0.5
187 1 0.337436 0.762576 0.5
271 1 0.386326 0.77112 0.5
278 1 0.437761 0.777617 0.5
277 1 0.487247 0.774461 0.5
105 1 0.475655 0.970766 0.5
183 1 0.308015 0.808503 0.5
179 1 0.361416 0.811899 0.5
180 1 0.329909 0.854911 0.5
185 1 0.409313 0.821353 0.5
189 1 0.459361 0.82347 0.5
90 1 0.276969 0.849452 0.5
184 1 0.379017 0.864502 0.5
188 1 0.432968 0.871233 0.5
286 1 0.481402 0.869784 0.5
192 1 0.295972 0.902306 0.5
193 1 0.349776 0.903713 0.5
195 1 0.399847 0.912052 0.5
206 1 0.451567 0.923041 0.5
101 1 0.262172 0.946659 0.5
194 1 0.31625 0.947347 0.5
198 1 0.368522 0.953376 0.5
182 1 0.256222 0.799765 0.5
191 1 0.293085 1.00021 0.5
262 1 0.499236 0.679916 0.5
69 1 0.249438 0.561931 0.5
218 1 0.548608 0.0244288 0.5
222 1 0.600752 0.025916 0.5
247 1 0.671917 0.464567 0.5
301 1 0.652872 0.0390158 0.5
210 1 0.708461 0.0436334 0.5
109 1 0.525775 0.0710022 0.5
214 1 0.57651 0.0669789 0.5
204 1 0.62149 0.0925572 0.5
220 1 0.671568 0.0911437 0.5
326 1 0.731766 0.0937472 0.5
223 1 0.538543 0.118301 0.5
219 1 0.589039 0.128803 0.5
215 1 0.643454 0.136729 0.5
120 1 0.508466 0.163456 0.5
224 1 0.563241 0.173694 0.5
331 1 0.694494 0.134503 0.5
348 1 0.732108 0.468585 0.5
228 1 0.613351 0.181907 0.5
233 1 0.663683 0.181144 0.5
334 1 0.716808 0.181624 0.5
226 1 0.533597 0.211823 0.5
332 1 0.581218 0.222965 0.5
322 1 0.638016 0.226785 0.5
337 1 0.685914 0.232131 0.5
239 1 0.737967 0.23403 0.5
243 1 0.509918 0.495698 0.5
327 1 0.554235 0.267091 0.5
209 1 0.604656 0.268 0.5
225 1 0.655151 0.275178 0.5
336 1 0.705562 0.279833 0.5
238 1 0.519473 0.307873 0.5
237 1 0.572137 0.313189 0.5
235 1 0.624572 0.316377 0.5
229 1 0.677204 0.319639 0.5
342 1 0.727384 0.326617 0.5
234 1 0.545446 0.362712 0.5
249 1 0.593202 0.364108 0.5
240 1 0.647965 0.360423 0.5
230 1 0.697797 0.367725 0.5
227 1 0.521376 0.405648 0.5
353 1 0.574855 0.412523 0.5
244 1 0.622274 0.410341 0.5
351 1 0.672231 0.41356 0.5
255 1 0.72757 0.417311 0.5
241 1 0.542023 0.458094 0.5
245 1 0.619032 0.463041 0.5
321 1 0.749348 0.140851 0.5
125 1 0.496208 0.0191687 0.5
254 1 0.572551 0.497215 0.5
330 1 0.746891 0.372816 0.5
135 1 0.502166 0.255455 0.5
376 1 0.7437 0.897035 0.5
258 1 0.69983 0.506795 0.5
366 1 0.745193 0.665791 0.5
72 1 0.688475 0.561645 0.5
208 1 0.735296 0.998904 0.5
165 1 0.537786 0.538998 0.5
354 1 0.590026 0.548653 0.5
252 1 0.638084 0.563472 0.5
264 1 0.741743 0.566939 0.5
213 1 0.633405 0.987955 0.5
263 1 0.559435 0.589261 0.5
256 1 0.606105 0.609054 0.5
268 1 0.537474 0.63343 0.5
257 1 0.583636 0.654049 0.5
261 1 0.662333 0.607744 0.5
253 1 0.715184 0.610547 0.5
289 1 0.635241 0.650719 0.5
270 1 0.687658 0.655983 0.5
248 1 0.510789 0.590059 0.5
274 1 0.551299 0.694043 0.5
279 1 0.61042 0.698012 0.5
284 1 0.660035 0.707393 0.5
265 1 0.710255 0.714847 0.5
283 1 0.514399 0.730262 0.5
291 1 0.576079 0.742182 0.5
298 1 0.626478 0.750336 0.5
276 1 0.547155 0.784106 0.5
377 1 0.598883 0.796985 0.5
273 1 0.682635 0.758238 0.5
280 1 0.734651 0.759074 0.5
269 1 0.651493 0.795736 0.5
275 1 0.701814 0.802121 0.5
296 1 0.510221 0.821972 0.5
190 1 0.569492 0.839627 0.5
201 1 0.618795 0.842887 0.5
115 1 0.673437 0.847784 0.5
381 1 0.722369 0.850847 0.5
287 1 0.531326 0.875084 0.5
285 1 0.586949 0.889707 0.5
282 1 0.637311 0.892571 0.5
378 1 0.691403 0.90418 0.5
349 1 0.631739 0.513005 0.5
104 1 0.503994 0.926703 0.5
217 1 0.55522 0.933082 0.5
207 1 0.608538 0.934335 0.5
297 1 0.657751 0.944334 0.5
288 1 0.709887 0.952127 0.5
114 1 0.53139 0.976805 0.5
212 1 0.582961 0.977208 0.5
203 1 0.682146 0.996297 0.5
302 1 0.758193 0.0486739 0.5
294 1 0.838018 0.00852863 0.5
399 1 0.945039 0.0109953 0.5
47 1 0.95808 0.495995 0.5
396 1 0.808608 0.0502068 0.5
392 1 0.864252 0.0516107 0.5
307 1 0.913003 0.0574695 0.5
303 1 0.965167 0.058219 0.5
311 1 0.78209 0.0975252 0.5
317 1 0.833613 0.108567 0.5
305 1 0.883101 0.103341 0.5
310 1 0.937293 0.101499 0.5
364 1 0.906831 0.493664 0.5
306 1 0.798737 0.145566 0.5
312 1 0.851535 0.161857 0.5
324 1 0.914281 0.148537 0.5
314 1 0.963558 0.163168 0.5
328 1 0.769793 0.18921 0.5
323 1 0.816931 0.199343 0.5
335 1 0.870837 0.20961 0.5
11 1 0.922061 0.204737 0.5
315 1 0.976126 0.217791 0.5
329 1 0.790393 0.245874 0.5
325 1 0.837734 0.247907 0.5
319 1 0.896589 0.253198 0.5
18 1 0.949245 0.259893 0.5
339 1 0.75768 0.282487 0.5
316 1 0.807472 0.293778 0.5
344 1 0.860075 0.295471 0.5
48 1 0.914898 0.303623 0.5
318 1 0.975074 0.314347 0.5
333 1 0.778824 0.33753 0.5
313 1 0.833416 0.338982 0.5
41 1 0.886631 0.343909 0.5
346 1 0.941511 0.352075 0.5
26 1 0.99726 0.360685 0.5
250 1 0.802331 0.38193 0.5
341 1 0.85411 0.384835 0.5
350 1 0.904473 0.391319 0.5
338 1 0.77861 0.426212 0.5
52 1 0.963414 0.399292 0.5
343 1 0.828186 0.439459 0.5
51 1 0.878533 0.434301 0.5
347 1 0.932295 0.44547 0.5
304 1 0.995446 0.0178017 0.5
308 1 0.984383 0.116779 0.5
31 1 0.795522 0.478812 0.5
358 1 0.856706 0.484349 0.5
56 1 0.985176 0.454944 0.5
202 1 0.788191 0.000776967 0.5
309 1 0.893809 0.0103905 0.5
359 1 0.821045 0.532166 0.5
42 1 0.848029 0.572424 0.5
61 1 0.877612 0.531161 0.5
387 1 0.974287 0.96884 0.5
62 1 0.930192 0.539595 0.5
44 1 0.989225 0.54254 0.5
352 1 0.772265 0.623834 0.5
260 1 0.824005 0.622076 0.5
357 1 0.89991 0.580851 0.5
71 1 0.95822 0.58996 0.5
259 1 0.798365 0.667016 0.5
367 1 0.877806 0.625388 0.5
362 1 0.929349 0.633929 0.5
46 1 0.952578 0.680772 0.5
375 1 0.984265 0.639481 0.5
361 1 0.849073 0.677369 0.5
365 1 0.900696 0.677514 0.5
368 1 0.919266 0.723682 0.5
300 1 0.815623 0.95831 0.5
356 1 0.758486 0.520036 0.5
369 1 0.813351 0.722983 0.5
91 1 0.866022 0.729497 0.5
374 1 0.973932 0.727996 0.5
205 1 0.869796 0.961988 0.5
363 1 0.785781 0.765645 0.5
385 1 0.83625 0.773138 0.5
81 1 0.887041 0.77549 0.5
77 1 0.938623 0.770768 0.5
87 1 0.990505 0.880884 0.5
380 1 0.988189 0.776349 0.5
76 1 0.802748 0.814178 0.5
382 1 0.86297 0.823134 0.5
391 1 0.911774 0.823102 0.5
384 1 0.965216 0.82202 0.5
373 1 0.777553 0.859905 0.5
290 1 0.828935 0.86012 0.5
295 1 0.883913 0.869697 0.5
398 1 0.936264 0.866774 0.5
299 1 0.921639 0.966665 0.5
293 1 0.79553 0.90381 0.5
397 1 0.84789 0.910919 0.5
386 1 0.902048 0.918843 0.5
393 1 0.95729 0.917422 0.5
292 1 0.762394 0.947857 0.5
371 1 0.763057 0.717964 0.5
355 1 0.79868 0.578589 0.5
372 1 0.753962 0.807504 0.5
