ITEM: TIMESTEP
100000
ITEM: NUMBER OF ATOMS
400
ITEM: BOX BOUNDS pp pp pp
0.0000000000000000e+00 1.9611613513818401e+01
0.0000000000000000e+00 1.9611613513818401e+01
-4.9029033784546006e-01 4.9029033784546006e-01
ITEM: ATOMS id type xs ys zs
172 1 0.0313224 0.0247056 0.5
81 1 0.085933 0.0094122 0.5
10 1 0.21909 0.0204833 0.5
323 1 0.071985 0.0627864 0.5
109 1 0.117913 0.0468629 0.5
94 1 0.168497 0.034872 0.5
339 1 0.0235881 0.0791894 0.5
383 1 0.151565 0.0853664 0.5
231 1 0.212012 0.0774499 0.5
328 1 0.00797627 0.125421 0.5
334 1 0.0586204 0.117494 0.5
400 1 0.106458 0.105558 0.5
309 1 0.193105 0.121822 0.5
129 1 0.244707 0.115494 0.5
11 1 0.040962 0.165873 0.5
23 1 0.100196 0.156126 0.5
24 1 0.146588 0.135267 0.5
232 1 0.22486 0.160956 0.5
22 1 0.0748901 0.197798 0.5
72 1 0.132672 0.198564 0.5
315 1 0.175783 0.174488 0.5
89 1 0.0266332 0.213729 0.5
4 1 0.206046 0.220929 0.5
82 1 0.058629 0.255777 0.5
117 1 0.10829 0.248858 0.5
83 1 0.157128 0.243325 0.5
144 1 0.23879 0.260808 0.5
17 1 0.00903466 0.26695 0.5
361 1 0.0848286 0.299243 0.5
19 1 0.137723 0.290193 0.5
69 1 0.186539 0.283134 0.5
12 1 0.0366448 0.310055 0.5
33 1 0.173555 0.329299 0.5
15 1 0.226256 0.314928 0.5
371 1 0.0155476 0.360259 0.5
30 1 0.0634549 0.348519 0.5
53 1 0.12134 0.336189 0.5
31 1 0.0962027 0.391076 0.5
370 1 0.152349 0.378329 0.5
48 1 0.204825 0.377436 0.5
335 1 0.0350005 0.405982 0.5
354 1 0.129042 0.427811 0.5
60 1 0.179252 0.418939 0.5
140 1 0.246757 0.414875 0.5
321 1 0.0122523 0.456879 0.5
126 1 0.0764345 0.438361 0.5
67 1 0.212571 0.46357 0.5
36 1 0.0501636 0.485275 0.5
90 1 0.108425 0.476334 0.5
68 1 0.159403 0.478006 0.5
355 1 0.0821778 0.526944 0.5
359 1 0.130921 0.519669 0.5
356 1 0.192956 0.512754 0.5
242 1 0.246237 0.501673 0.5
46 1 0.0357919 0.540409 0.5
5 1 0.173216 0.556955 0.5
103 1 0.228503 0.549578 0.5
325 1 0.0134614 0.586963 0.5
84 1 0.0649057 0.57883 0.5
365 1 0.114213 0.567121 0.5
57 1 0.20474 0.598954 0.5
305 1 0.0493323 0.626979 0.5
138 1 0.10362 0.615204 0.5
61 1 0.152172 0.606528 0.5
42 1 0.00239322 0.635006 0.5
376 1 0.0843102 0.66142 0.5
262 1 0.13302 0.653703 0.5
92 1 0.184229 0.646621 0.5
168 1 0.23344 0.638839 0.5
64 1 0.0369327 0.678514 0.5
91 1 0.114265 0.698509 0.5
147 1 0.164752 0.69285 0.5
58 1 0.217516 0.685181 0.5
353 1 0.0182017 0.725102 0.5
245 1 0.0668745 0.716502 0.5
178 1 0.105032 0.751917 0.5
3 1 0.157582 0.747118 0.5
174 1 0.217854 0.733509 0.5
88 1 0.00753135 0.786719 0.5
74 1 0.0530407 0.767012 0.5
9 1 0.131818 0.797385 0.5
388 1 0.186228 0.785305 0.5
98 1 0.248021 0.783206 0.5
375 1 0.0365611 0.829464 0.5
123 1 0.0813678 0.816591 0.5
77 1 0.221065 0.829346 0.5
390 1 0.0717849 0.865243 0.5
14 1 0.122217 0.848888 0.5
151 1 0.174129 0.844081 0.5
360 1 0.023437 0.877865 0.5
1 1 0.158078 0.895782 0.5
113 1 0.209525 0.880657 0.5
116 1 0.00196065 0.927239 0.5
176 1 0.0553217 0.919812 0.5
181 1 0.109449 0.911043 0.5
108 1 0.196128 0.930334 0.5
209 1 0.24575 0.917674 0.5
192 1 0.0933868 0.958601 0.5
112 1 0.143156 0.942488 0.5
62 1 0.0455194 0.974825 0.5
95 1 0.132901 0.99453 0.5
25 1 0.182201 0.985461 0.5
115 1 0.232504 0.967963 0.5
217 1 0.270543 0.0114607 0.5
101 1 0.319673 0.00064082 0.5
331 1 0.461733 0.0247687 0.5
218 1 0.259083 0.0625603 0.5
102 1 0.3037 0.0504649 0.5
20 1 0.363111 0.050376 0.5
189 1 0.413785 0.0444685 0.5
165 1 0.491184 0.0623263 0.5
120 1 0.396184 0.09165 0.5
7 1 0.445871 0.0857274 0.5
135 1 0.295998 0.105709 0.5
119 1 0.343221 0.101437 0.5
329 1 0.481952 0.118126 0.5
106 1 0.275565 0.161622 0.5
330 1 0.325325 0.148278 0.5
155 1 0.384008 0.146824 0.5
50 1 0.43179 0.136751 0.5
395 1 0.309853 0.195725 0.5
128 1 0.363149 0.194355 0.5
104 1 0.416562 0.188223 0.5
105 1 0.472719 0.172137 0.5
125 1 0.259598 0.21711 0.5
240 1 0.398239 0.233127 0.5
233 1 0.456951 0.222986 0.5
55 1 0.299018 0.248406 0.5
322 1 0.347701 0.242208 0.5
145 1 0.48815 0.262916 0.5
127 1 0.332568 0.292678 0.5
244 1 0.384694 0.282837 0.5
132 1 0.436601 0.266877 0.5
59 1 0.275122 0.319672 0.5
130 1 0.367857 0.329396 0.5
327 1 0.417324 0.31797 0.5
203 1 0.466723 0.306718 0.5
223 1 0.253987 0.364558 0.5
134 1 0.31797 0.346284 0.5
308 1 0.450881 0.353364 0.5
38 1 0.293833 0.399213 0.5
49 1 0.349672 0.37992 0.5
237 1 0.399386 0.367011 0.5
278 1 0.473298 0.397012 0.5
346 1 0.373645 0.422236 0.5
152 1 0.424584 0.411201 0.5
368 1 0.271378 0.456095 0.5
366 1 0.327946 0.435281 0.5
153 1 0.412664 0.461668 0.5
229 1 0.463137 0.445846 0.5
156 1 0.313087 0.484636 0.5
241 1 0.361767 0.480773 0.5
43 1 0.451927 0.498742 0.5
265 1 0.390413 0.523892 0.5
256 1 0.28908 0.534709 0.5
351 1 0.342289 0.53662 0.5
139 1 0.430839 0.553161 0.5
222 1 0.488032 0.537822 0.5
52 1 0.25902 0.589293 0.5
44 1 0.322448 0.582019 0.5
142 1 0.379507 0.578546 0.5
70 1 0.486907 0.588371 0.5
162 1 0.361322 0.62631 0.5
230 1 0.418557 0.616173 0.5
146 1 0.304095 0.633828 0.5
257 1 0.472509 0.640027 0.5
358 1 0.269902 0.669947 0.5
85 1 0.316793 0.69282 0.5
118 1 0.365204 0.681299 0.5
65 1 0.413338 0.673395 0.5
191 1 0.462489 0.687696 0.5
47 1 0.394628 0.719617 0.5
63 1 0.490807 0.729021 0.5
177 1 0.268704 0.737371 0.5
185 1 0.349456 0.737781 0.5
179 1 0.442778 0.740364 0.5
100 1 0.30171 0.778262 0.5
143 1 0.380065 0.777981 0.5
216 1 0.4254 0.790342 0.5
184 1 0.473251 0.779933 0.5
194 1 0.275961 0.82316 0.5
45 1 0.342819 0.809867 0.5
110 1 0.456548 0.827343 0.5
196 1 0.310552 0.857556 0.5
141 1 0.358916 0.857746 0.5
164 1 0.404938 0.836355 0.5
173 1 0.256952 0.868267 0.5
166 1 0.398802 0.898264 0.5
208 1 0.44654 0.877691 0.5
180 1 0.497002 0.872624 0.5
182 1 0.291565 0.901175 0.5
171 1 0.349969 0.90687 0.5
397 1 0.483257 0.927106 0.5
27 1 0.280706 0.953386 0.5
107 1 0.331561 0.953982 0.5
213 1 0.385623 0.948698 0.5
212 1 0.434032 0.936568 0.5
114 1 0.368757 0.99404 0.5
341 1 0.417225 0.991697 0.5
306 1 0.464777 0.975122 0.5
319 1 0.508668 0.0148154 0.5
239 1 0.557324 0.000138921 0.5
204 1 0.595021 0.0321106 0.5
274 1 0.649672 0.0226211 0.5
291 1 0.71077 0.0104224 0.5
211 1 0.543606 0.0465805 0.5
195 1 0.690841 0.0552634 0.5
396 1 0.737725 0.0501799 0.5
227 1 0.583672 0.0841536 0.5
391 1 0.635324 0.0687361 0.5
302 1 0.725858 0.0992249 0.5
250 1 0.531257 0.101432 0.5
202 1 0.622858 0.119834 0.5
299 1 0.670188 0.107974 0.5
124 1 0.522867 0.156458 0.5
221 1 0.569633 0.137221 0.5
56 1 0.65767 0.157664 0.5
205 1 0.712984 0.151263 0.5
167 1 0.554863 0.19565 0.5
301 1 0.602691 0.179315 0.5
34 1 0.748537 0.187973 0.5
238 1 0.506027 0.211196 0.5
312 1 0.634903 0.2154 0.5
345 1 0.687066 0.201866 0.5
333 1 0.72926 0.232471 0.5
201 1 0.538642 0.249986 0.5
399 1 0.585441 0.235355 0.5
314 1 0.674534 0.24989 0.5
260 1 0.523912 0.297817 0.5
226 1 0.573811 0.284912 0.5
248 1 0.627162 0.2681 0.5
337 1 0.710773 0.287165 0.5
393 1 0.562736 0.332121 0.5
263 1 0.609019 0.316473 0.5
255 1 0.663826 0.303897 0.5
258 1 0.74883 0.326062 0.5
2 1 0.500141 0.344164 0.5
347 1 0.601611 0.364936 0.5
285 1 0.649368 0.35282 0.5
243 1 0.702191 0.338438 0.5
224 1 0.538106 0.37541 0.5
214 1 0.681557 0.392044 0.5
225 1 0.738273 0.379579 0.5
307 1 0.514954 0.424161 0.5
249 1 0.565338 0.41542 0.5
228 1 0.617238 0.415127 0.5
235 1 0.555197 0.46559 0.5
316 1 0.665722 0.438081 0.5
369 1 0.719516 0.434977 0.5
342 1 0.503669 0.487967 0.5
261 1 0.605114 0.46765 0.5
367 1 0.649932 0.490476 0.5
157 1 0.700528 0.479741 0.5
336 1 0.542893 0.523516 0.5
148 1 0.589711 0.515948 0.5
273 1 0.688796 0.53295 0.5
280 1 0.746767 0.514869 0.5
380 1 0.586166 0.564628 0.5
349 1 0.638622 0.539596 0.5
252 1 0.732124 0.56275 0.5
8 1 0.535719 0.573738 0.5
292 1 0.625555 0.59482 0.5
169 1 0.676843 0.580496 0.5
253 1 0.524162 0.624231 0.5
275 1 0.573139 0.614735 0.5
234 1 0.662851 0.628735 0.5
277 1 0.712794 0.616778 0.5
270 1 0.615589 0.649894 0.5
271 1 0.694012 0.665372 0.5
254 1 0.747353 0.656324 0.5
287 1 0.512672 0.672739 0.5
296 1 0.564203 0.666764 0.5
304 1 0.646124 0.692243 0.5
281 1 0.544136 0.720984 0.5
154 1 0.597723 0.703927 0.5
373 1 0.682712 0.728958 0.5
269 1 0.726759 0.704185 0.5
264 1 0.523956 0.76639 0.5
386 1 0.581783 0.755608 0.5
288 1 0.631665 0.740604 0.5
163 1 0.720719 0.761108 0.5
159 1 0.612431 0.79043 0.5
160 1 0.671887 0.783506 0.5
35 1 0.504672 0.818183 0.5
363 1 0.558561 0.80238 0.5
215 1 0.661894 0.830128 0.5
175 1 0.712392 0.814906 0.5
297 1 0.547621 0.854426 0.5
210 1 0.599801 0.842922 0.5
188 1 0.595565 0.892394 0.5
193 1 0.65451 0.882575 0.5
149 1 0.701717 0.867957 0.5
197 1 0.539849 0.902885 0.5
158 1 0.675065 0.929188 0.5
251 1 0.745695 0.9047 0.5
137 1 0.522066 0.964795 0.5
286 1 0.571495 0.94382 0.5
317 1 0.62337 0.936746 0.5
236 1 0.717885 0.95843 0.5
199 1 0.604376 0.983684 0.5
198 1 0.667239 0.977853 0.5
207 1 0.845624 0.0270797 0.5
39 1 0.897135 0.00413914 0.5
26 1 0.981355 0.0285376 0.5
87 1 0.78749 0.0366236 0.5
206 1 0.884136 0.0580071 0.5
186 1 0.93414 0.0447021 0.5
16 1 0.778727 0.0867055 0.5
348 1 0.824522 0.0723754 0.5
18 1 0.925488 0.0993769 0.5
21 1 0.969143 0.0769756 0.5
311 1 0.810148 0.123587 0.5
111 1 0.865714 0.104286 0.5
290 1 0.762109 0.139481 0.5
293 1 0.851562 0.153593 0.5
320 1 0.902299 0.142036 0.5
295 1 0.953674 0.138469 0.5
247 1 0.797506 0.174995 0.5
310 1 0.887227 0.19061 0.5
29 1 0.938843 0.187358 0.5
379 1 0.991848 0.178916 0.5
338 1 0.778557 0.224375 0.5
364 1 0.837374 0.208237 0.5
136 1 0.970901 0.227455 0.5
40 1 0.809933 0.261543 0.5
344 1 0.861808 0.251299 0.5
324 1 0.917331 0.234324 0.5
343 1 0.761466 0.27481 0.5
51 1 0.845442 0.298652 0.5
394 1 0.898637 0.283305 0.5
350 1 0.949265 0.275174 0.5
97 1 0.798098 0.311092 0.5
122 1 0.936556 0.32514 0.5
259 1 0.988993 0.314681 0.5
13 1 0.836138 0.352702 0.5
41 1 0.889256 0.338552 0.5
389 1 0.788326 0.370765 0.5
80 1 0.87183 0.386725 0.5
37 1 0.953365 0.377037 0.5
246 1 0.772356 0.418726 0.5
340 1 0.821105 0.403661 0.5
352 1 0.915522 0.412054 0.5
71 1 0.985993 0.414685 0.5
150 1 0.759778 0.463727 0.5
362 1 0.808744 0.450347 0.5
332 1 0.858868 0.440123 0.5
133 1 0.902166 0.462718 0.5
374 1 0.954938 0.460466 0.5
121 1 0.851156 0.492436 0.5
313 1 0.802654 0.502909 0.5
267 1 0.88513 0.529431 0.5
387 1 0.930336 0.508331 0.5
131 1 0.991103 0.502343 0.5
93 1 0.782901 0.549881 0.5
289 1 0.836277 0.5425 0.5
392 1 0.930289 0.559823 0.5
326 1 0.98056 0.552969 0.5
378 1 0.806415 0.594614 0.5
66 1 0.87408 0.57999 0.5
272 1 0.759697 0.604261 0.5
372 1 0.851236 0.627647 0.5
303 1 0.910435 0.615511 0.5
357 1 0.958371 0.600326 0.5
268 1 0.798751 0.643822 0.5
73 1 0.947934 0.648577 0.5
276 1 0.79114 0.69195 0.5
78 1 0.849624 0.686604 0.5
382 1 0.897956 0.669359 0.5
79 1 0.9824 0.68952 0.5
294 1 0.82428 0.729643 0.5
384 1 0.881699 0.725357 0.5
183 1 0.934704 0.707274 0.5
298 1 0.773091 0.743452 0.5
170 1 0.925229 0.758664 0.5
284 1 0.971302 0.741528 0.5
266 1 0.764129 0.796952 0.5
282 1 0.818283 0.78493 0.5
86 1 0.867438 0.772919 0.5
219 1 0.850177 0.820708 0.5
300 1 0.900088 0.812165 0.5
28 1 0.953458 0.800453 0.5
96 1 0.7515 0.853748 0.5
283 1 0.800202 0.835702 0.5
99 1 0.885564 0.859566 0.5
32 1 0.939376 0.84821 0.5
76 1 0.983402 0.837604 0.5
381 1 0.789788 0.885745 0.5
200 1 0.839464 0.870198 0.5
54 1 0.922088 0.897295 0.5
161 1 0.971883 0.884656 0.5
385 1 0.826323 0.923304 0.5
220 1 0.874939 0.907209 0.5
75 1 0.95408 0.932592 0.5
279 1 0.78019 0.940931 0.5
187 1 0.9027 0.949813 0.5
398 1 0.758882 0.986021 0.5
318 1 0.809934 0.988066 0.5
190 1 0.854192 0.971036 0.5
377 1 0.942374 0.98531 0.5
6 1 0.99497 0.976383 0.5
