ITEM: TIMESTEP
100000
ITEM: NUMBER OF ATOMS
400
ITEM: BOX BOUNDS pp pp pp
0.0000000000000000e+00 1.9900743804199784e+01
0.0000000000000000e+00 1.9900743804199784e+01
-4.9751859510499458e-01 4.9751859510499458e-01
ITEM: ATOMS id type xs ys zs
325 1 0.011527 0.470381 0.5
243 1 0.00776456 0.0299654 0.5
280 1 0.00607499 0.416936 0.5
159 1 0.0510619 0.0558335 0.5
217 1 0.0989239 0.0438167 0.5
279 1 0.193111 0.485747 0.5
389 1 0.192002 0.0447826 0.5
261 1 0.0879163 0.0924367 0.5
87 1 0.141844 0.117263 0.5
213 1 0.14692 0.0652055 0.5
220 1 0.238439 0.071733 0.5
342 1 0.0406006 0.105803 0.5
313 1 0.19065 0.100548 0.5
294 1 0.0326835 0.157801 0.5
175 1 0.0951101 0.141989 0.5
310 1 0.134305 0.177389 0.5
105 1 0.0882838 0.19618 0.5
223 1 0.175563 0.201455 0.5
241 1 0.184266 0.146623 0.5
239 1 0.23244 0.125306 0.5
103 1 0.0187599 0.207131 0.5
158 1 0.0648851 0.238188 0.5
110 1 0.225914 0.227355 0.5
319 1 0.0163792 0.259569 0.5
259 1 0.100147 0.269224 0.5
154 1 0.12724 0.227413 0.5
139 1 0.0548779 0.287512 0.5
144 1 0.111678 0.316531 0.5
348 1 0.170531 0.250718 0.5
383 1 0.211826 0.277021 0.5
122 1 0.017347 0.315976 0.5
155 1 0.205455 0.326516 0.5
283 1 0.243922 0.0232927 0.5
374 1 0.0628562 0.339501 0.5
72 1 0.0999645 0.375657 0.5
391 1 0.160927 0.298999 0.5
73 1 0.144376 0.351067 0.5
32 1 0.0570073 0.397997 0.5
149 1 0.164921 0.396215 0.5
335 1 0.211019 0.373693 0.5
13 1 0.0104331 0.367944 0.5
132 1 0.105664 0.426451 0.5
307 1 0.198728 0.428569 0.5
17 1 0.0620611 0.453957 0.5
262 1 0.106355 0.481644 0.5
395 1 0.147938 0.452515 0.5
42 1 0.225434 0.174264 0.5
188 1 0.134818 0.00410389 0.5
199 1 0.250192 0.462751 0.5
90 1 0.0510788 0.00397392 0.5
111 1 0.00604582 0.619364 0.5
195 1 0.106177 0.531122 0.5
48 1 0.195168 0.531957 0.5
352 1 0.14379 0.9556 0.5
119 1 0.0421063 0.554871 0.5
18 1 0.151088 0.558293 0.5
215 1 0.14828 0.506764 0.5
358 1 0.0108286 0.908102 0.5
390 1 0.0581993 0.599962 0.5
64 1 0.104516 0.579258 0.5
171 1 0.197952 0.58955 0.5
289 1 0.191807 0.941126 0.5
40 1 0.0968028 0.632918 0.5
255 1 0.15208 0.608793 0.5
70 1 0.237788 0.620969 0.5
311 1 0.0486259 0.645009 0.5
135 1 0.136457 0.662746 0.5
362 1 0.192197 0.638062 0.5
126 1 0.0875661 0.680085 0.5
45 1 0.182012 0.686543 0.5
35 1 0.232515 0.671201 0.5
368 1 0.0363118 0.699887 0.5
225 1 0.130526 0.723271 0.5
168 1 0.227045 0.722505 0.5
193 1 0.0315817 0.751413 0.5
366 1 0.0833672 0.738021 0.5
52 1 0.17186 0.750717 0.5
81 1 0.071835 0.792422 0.5
44 1 0.123943 0.771561 0.5
142 1 0.227942 0.772012 0.5
4 1 0.0213526 0.805149 0.5
8 1 0.117031 0.820405 0.5
113 1 0.189475 0.803398 0.5
282 1 0.220113 0.844997 0.5
104 1 0.0588411 0.842913 0.5
278 1 0.164174 0.846362 0.5
148 1 0.00719296 0.856587 0.5
22 1 0.116383 0.869002 0.5
317 1 0.208603 0.895122 0.5
254 1 0.0899237 0.973989 0.5
27 1 0.0148246 0.971531 0.5
297 1 0.0703839 0.888577 0.5
306 1 0.105682 0.924438 0.5
276 1 0.158487 0.904038 0.5
166 1 0.0566558 0.938986 0.5
341 1 0.181918 0.990803 0.5
75 1 0.24795 0.520009 0.5
308 1 0.236844 0.961952 0.5
296 1 0.0539278 0.504391 0.5
21 1 0.00450631 0.521771 0.5
388 1 0.245079 0.568116 0.5
251 1 0.484431 0.457106 0.5
204 1 0.335344 0.0369039 0.5
300 1 0.431793 0.484728 0.5
336 1 0.287302 0.0528509 0.5
382 1 0.338875 0.0840514 0.5
61 1 0.38704 0.0662272 0.5
226 1 0.442925 0.0218917 0.5
169 1 0.481965 0.0640037 0.5
134 1 0.374548 0.118521 0.5
177 1 0.430438 0.0854463 0.5
331 1 0.29061 0.0997074 0.5
377 1 0.273785 0.153323 0.5
94 1 0.327091 0.136666 0.5
380 1 0.479599 0.113342 0.5
68 1 0.274694 0.215211 0.5
115 1 0.372305 0.163871 0.5
354 1 0.419067 0.132303 0.5
23 1 0.32681 0.185094 0.5
339 1 0.41452 0.190134 0.5
208 1 0.460568 0.163182 0.5
190 1 0.394987 0.0100994 0.5
357 1 0.321504 0.232988 0.5
347 1 0.368097 0.214133 0.5
349 1 0.472769 0.2122 0.5
187 1 0.258854 0.366727 0.5
152 1 0.366064 0.260272 0.5
338 1 0.417378 0.237747 0.5
265 1 0.31129 0.287074 0.5
147 1 0.412495 0.284446 0.5
92 1 0.46023 0.275362 0.5
322 1 0.38937 0.451653 0.5
151 1 0.365283 0.319251 0.5
10 1 0.453617 0.329089 0.5
97 1 0.34301 0.486153 0.5
84 1 0.304597 0.33559 0.5
185 1 0.408342 0.347687 0.5
120 1 0.49363 0.35826 0.5
247 1 0.305629 0.399153 0.5
231 1 0.346766 0.367631 0.5
315 1 0.434742 0.400456 0.5
116 1 0.344786 0.424427 0.5
128 1 0.383625 0.398465 0.5
179 1 0.261576 0.262751 0.5
353 1 0.298375 0.448656 0.5
60 1 0.490147 0.406572 0.5
269 1 0.491066 0.0134593 0.5
108 1 0.259549 0.309794 0.5
248 1 0.25581 0.41527 0.5
89 1 0.276917 0.762369 0.5
184 1 0.294646 0.999388 0.5
118 1 0.293521 0.561974 0.5
63 1 0.337857 0.540916 0.5
9 1 0.431594 0.539339 0.5
143 1 0.337569 0.590271 0.5
301 1 0.381754 0.565226 0.5
19 1 0.426072 0.590654 0.5
96 1 0.477443 0.569418 0.5
293 1 0.294001 0.614614 0.5
373 1 0.379851 0.618619 0.5
291 1 0.471945 0.618403 0.5
253 1 0.28322 0.66402 0.5
359 1 0.338338 0.642801 0.5
207 1 0.423043 0.642984 0.5
290 1 0.32834 0.695495 0.5
7 1 0.374863 0.674411 0.5
56 1 0.426167 0.691285 0.5
16 1 0.468069 0.670042 0.5
98 1 0.273363 0.711109 0.5
54 1 0.370443 0.723441 0.5
367 1 0.465281 0.723499 0.5
1 1 0.495977 0.907432 0.5
344 1 0.326782 0.742943 0.5
224 1 0.419073 0.741243 0.5
263 1 0.317859 0.789978 0.5
14 1 0.372075 0.773667 0.5
86 1 0.415831 0.795704 0.5
93 1 0.459856 0.770964 0.5
219 1 0.482109 0.522063 0.5
200 1 0.342677 0.835279 0.5
202 1 0.457198 0.828197 0.5
236 1 0.296027 0.845849 0.5
281 1 0.40001 0.853226 0.5
180 1 0.261895 0.810675 0.5
194 1 0.313957 0.894289 0.5
198 1 0.362159 0.885243 0.5
62 1 0.405419 0.91359 0.5
39 1 0.448273 0.876584 0.5
6 1 0.337778 0.938613 0.5
249 1 0.451841 0.928788 0.5
304 1 0.297513 0.511952 0.5
314 1 0.432986 0.974589 0.5
326 1 0.28402 0.946056 0.5
205 1 0.383595 0.958678 0.5
91 1 0.257316 0.902095 0.5
323 1 0.341043 0.989256 0.5
20 1 0.483349 0.96482 0.5
286 1 0.388046 0.514801 0.5
30 1 0.576506 0.0143683 0.5
95 1 0.672309 0.0141358 0.5
346 1 0.68363 0.463034 0.5
112 1 0.529485 0.046642 0.5
36 1 0.614844 0.0460235 0.5
232 1 0.716784 0.0510093 0.5
302 1 0.5265 0.0976276 0.5
363 1 0.57048 0.0725933 0.5
49 1 0.621607 0.0980801 0.5
320 1 0.672683 0.0709603 0.5
79 1 0.570605 0.124231 0.5
26 1 0.703755 0.105641 0.5
256 1 0.529985 0.435755 0.5
191 1 0.527973 0.142408 0.5
85 1 0.615057 0.146795 0.5
222 1 0.667576 0.136205 0.5
272 1 0.711062 0.157424 0.5
242 1 0.632685 0.500125 0.5
137 1 0.565923 0.176081 0.5
379 1 0.657477 0.186102 0.5
365 1 0.521988 0.489484 0.5
88 1 0.561296 0.222937 0.5
214 1 0.608988 0.204222 0.5
375 1 0.70081 0.214578 0.5
210 1 0.56862 0.474423 0.5
65 1 0.646538 0.238392 0.5
386 1 0.732333 0.444368 0.5
337 1 0.55411 0.27583 0.5
140 1 0.601567 0.256681 0.5
234 1 0.635434 0.292562 0.5
153 1 0.688672 0.264085 0.5
264 1 0.730775 0.288115 0.5
393 1 0.635969 0.450559 0.5
53 1 0.544798 0.335905 0.5
46 1 0.586634 0.309635 0.5
318 1 0.682127 0.314117 0.5
174 1 0.638594 0.34406 0.5
392 1 0.690924 0.364333 0.5
284 1 0.734779 0.34023 0.5
161 1 0.54081 0.385971 0.5
360 1 0.585539 0.363031 0.5
165 1 0.635252 0.390854 0.5
381 1 0.729711 0.395941 0.5
298 1 0.584055 0.41692 0.5
216 1 0.676348 0.412704 0.5
28 1 0.519571 0.195247 0.5
209 1 0.509259 0.300525 0.5
201 1 0.513329 0.243628 0.5
170 1 0.723455 0.49116 0.5
181 1 0.748298 0.233677 0.5
57 1 0.586378 0.522374 0.5
2 1 0.728309 0.842962 0.5
230 1 0.676947 0.514454 0.5
370 1 0.525426 0.541395 0.5
237 1 0.636436 0.546677 0.5
397 1 0.71994 0.539983 0.5
295 1 0.527126 0.599165 0.5
33 1 0.571384 0.576717 0.5
316 1 0.679223 0.570768 0.5
275 1 0.571869 0.625881 0.5
303 1 0.621077 0.592447 0.5
173 1 0.716677 0.608168 0.5
43 1 0.513763 0.643997 0.5
321 1 0.614621 0.648327 0.5
38 1 0.661267 0.623096 0.5
164 1 0.713915 0.655951 0.5
328 1 0.738223 0.73848 0.5
178 1 0.567827 0.675743 0.5
138 1 0.663568 0.675646 0.5
100 1 0.556149 0.732311 0.5
5 1 0.606917 0.706152 0.5
372 1 0.699677 0.707709 0.5
156 1 0.675968 0.966976 0.5
131 1 0.599617 0.758398 0.5
378 1 0.650577 0.729694 0.5
66 1 0.550223 0.781896 0.5
145 1 0.64242 0.790028 0.5
150 1 0.685959 0.760641 0.5
332 1 0.731713 0.790813 0.5
197 1 0.545033 0.835639 0.5
252 1 0.591163 0.808359 0.5
228 1 0.686013 0.819198 0.5
82 1 0.593547 0.856642 0.5
55 1 0.640219 0.842795 0.5
160 1 0.531113 0.98183 0.5
238 1 0.551676 0.886098 0.5
125 1 0.634007 0.893797 0.5
267 1 0.683364 0.869447 0.5
78 1 0.729409 0.896116 0.5
141 1 0.590626 0.918844 0.5
277 1 0.676476 0.915426 0.5
117 1 0.538095 0.934528 0.5
376 1 0.58667 0.968131 0.5
29 1 0.63056 0.942575 0.5
51 1 0.729634 0.94691 0.5
221 1 0.512849 0.702312 0.5
83 1 0.624172 1.00089 0.5
268 1 0.509408 0.754321 0.5
371 1 0.719776 0.99556 0.5
258 1 0.501907 0.804401 0.5
246 1 0.503057 0.86032 0.5
333 1 0.869898 0.48726 0.5
398 1 0.814513 0.0111061 0.5
399 1 0.858509 0.0389751 0.5
266 1 0.915207 0.0106663 0.5
384 1 0.803167 0.0644393 0.5
361 1 0.907043 0.0621124 0.5
76 1 0.952705 0.0491769 0.5
271 1 0.978114 0.179534 0.5
59 1 0.848077 0.0876388 0.5
109 1 0.944018 0.0960137 0.5
129 1 0.772291 0.472647 0.5
340 1 0.802738 0.120772 0.5
206 1 0.845915 0.142988 0.5
25 1 0.893452 0.11051 0.5
106 1 0.915294 0.457951 0.5
192 1 0.893213 0.158187 0.5
114 1 0.939686 0.150706 0.5
212 1 0.801722 0.169224 0.5
329 1 0.847004 0.191427 0.5
274 1 0.932054 0.199185 0.5
123 1 0.762252 0.0301656 0.5
240 1 0.796699 0.215455 0.5
324 1 0.888223 0.216154 0.5
327 1 0.971254 0.228375 0.5
287 1 0.837109 0.242502 0.5
130 1 0.884694 0.269587 0.5
355 1 0.928293 0.25148 0.5
121 1 0.791086 0.266154 0.5
186 1 0.837629 0.294347 0.5
176 1 0.974902 0.281755 0.5
101 1 0.777274 0.31824 0.5
394 1 0.884422 0.324051 0.5
67 1 0.928037 0.300908 0.5
12 1 0.967904 0.332536 0.5
350 1 0.833074 0.341624 0.5
71 1 0.925976 0.355238 0.5
102 1 0.775555 0.373478 0.5
196 1 0.82788 0.397082 0.5
183 1 0.873735 0.378764 0.5
400 1 0.96384 0.391407 0.5
351 1 0.78697 0.424943 0.5
127 1 0.866515 0.42963 0.5
364 1 0.91958 0.410872 0.5
80 1 0.963741 0.437943 0.5
396 1 0.821226 0.459945 0.5
167 1 0.957892 0.486401 0.5
312 1 0.760344 0.0820929 0.5
3 1 0.754435 0.132291 0.5
229 1 0.756803 0.18578 0.5
369 1 0.992568 0.13242 0.5
227 1 0.998841 0.0807861 0.5
99 1 0.868272 0.983435 0.5
157 1 0.773342 0.980858 0.5
162 1 0.859042 0.536297 0.5
146 1 0.911803 0.519059 0.5
292 1 0.955583 0.539425 0.5
189 1 0.810499 0.556035 0.5
41 1 0.774759 0.5212 0.5
270 1 0.849971 0.587795 0.5
235 1 0.904116 0.566929 0.5
345 1 0.950368 0.5886 0.5
133 1 0.801652 0.607258 0.5
58 1 0.893201 0.615122 0.5
244 1 1.00063 0.667624 0.5
218 1 0.795801 0.664765 0.5
257 1 0.842119 0.63636 0.5
15 1 0.954085 0.637852 0.5
288 1 0.996364 0.571436 0.5
387 1 0.838585 0.68704 0.5
309 1 0.897083 0.663836 0.5
233 1 0.940999 0.686828 0.5
124 1 0.966191 0.945994 0.5
305 1 0.787889 0.715787 0.5
260 1 0.892965 0.7283 0.5
136 1 0.910557 0.895469 0.5
356 1 0.84002 0.736349 0.5
343 1 0.940939 0.743581 0.5
50 1 0.75834 0.577445 0.5
47 1 0.9175 0.94866 0.5
203 1 0.78506 0.769011 0.5
37 1 0.830948 0.787571 0.5
77 1 0.877028 0.772157 0.5
330 1 0.823979 0.957432 0.5
172 1 0.780409 0.817392 0.5
31 1 0.868565 0.825641 0.5
24 1 0.933261 0.793955 0.5
250 1 0.823654 0.843398 0.5
211 1 0.911883 0.843022 0.5
285 1 0.984906 0.768731 0.5
385 1 0.777127 0.868322 0.5
11 1 0.817526 0.897852 0.5
182 1 0.868039 0.875407 0.5
34 1 0.957778 0.896852 0.5
163 1 0.775024 0.929586 0.5
334 1 0.868701 0.934429 0.5
273 1 0.96646 0.999369 0.5
299 1 0.971625 0.828047 0.5
245 1 0.986058 0.717379 0.5
107 1 0.758679 0.632935 0.5
69 1 0.821569 0.508175 0.5
74 1 0.75195 0.684289 0.5
