LAMMPS (15 Sep 2022)
OMP_NUM_THREADS environment is not set. Defaulting to 1 thread. (src/comm.cpp:98)
  using 1 OpenMP thread(s) per MPI task
Lattice spacing in x,y,z = 0.99503719 0.99503719 0.99503719
Created orthogonal box = (0 0 -0.4975186) to (19.900744 19.900744 0.4975186)
  4 by 2 by 1 MPI processor grid
Created 400 atoms
  using lattice units in orthogonal box = (0 0 -0.4975186) to (19.900744 19.900744 0.4975186)
  create_atoms CPU = 0.000 seconds
Generated 0 of 0 mixed pair_coeff terms from geometric mixing rule
Neighbor list info ...
  update: every = 1 steps, delay = 0 steps, check = yes
  max neighbors/atom: 2000, page size: 100000
  master list distance cutoff = 1.3
  ghost atom cutoff = 1.3
  binsize = 0.65, bins = 31 31 2
  1 neighbor lists, perpetual/occasional/extra = 1 0 0
  (1) pair lj/cut, perpetual
      attributes: half, newton on
      pair build: half/bin/atomonly/newton
      stencil: half/bin/2d
      bin: standard
Setting up Verlet run ...
  Unit style    : lj
  Current step  : 0
  Time step     : 0.01
Per MPI rank memory allocation (min/avg/max) = 3.048 | 3.048 | 3.048 Mbytes
   Step          Temp          E_pair         E_mol          TotEng         Press     
         0   3              0.018363012    0              3.010863       6.8061861    
       500   3.2373266      1.6617855      0              4.8910188      33.063097    
      1000   3.347006       1.5786646      0              4.9173031      32.429274    
      1500   3.1149919      1.7455591      0              4.8527635      34.066184    
      2000   2.8677547      1.5504121      0              4.4109974      31.306791    
      2500   3.0748534      1.5842779      0              4.6514442      32.525831    
      3000   3.1442423      1.6606558      0              4.7970375      33.340571    
      3500   3.175038       1.361145       0              4.5282454      29.084425    
      4000   3.0006438      1.6247111      0              4.6178533      32.550003    
      4500   2.9116841      1.9164809      0              4.8208858      36.020273    
      5000   3.063186       1.8400799      0              4.8956078      35.832211    
      5500   3.039327       1.7231698      0              4.7548985      34.178294    
      6000   2.9508268      1.5973374      0              4.5407871      31.689583    
      6500   3.0838467      1.4647902      0              4.5409273      30.780967    
      7000   2.9521352      1.4071609      0              4.3519158      29.171067    
      7500   2.7495757      1.6480639      0              4.3907656      32.622951    
      8000   2.9543928      1.7104264      0              4.6574332      33.344457    
      8500   2.9363455      1.6067776      0              4.5357822      31.950693    
      9000   2.9305792      1.6796286      0              4.6028813      33.34882     
      9500   2.9595459      1.7490461      0              4.7011931      33.867422    
     10000   3.1329621      1.6087427      0              4.7338725      31.780178    
     10500   3.2633816      1.7563133      0              5.0115365      34.293143    
     11000   2.9428581      1.723552       0              4.6590529      33.239408    
     11500   3.017573       1.4360373      0              4.4460664      29.989832    
     12000   3.05191        1.5556447      0              4.5999249      32.065216    
     12500   3.3155178      1.5775962      0              4.8848253      32.047167    
     13000   2.6427452      1.8816483      0              4.5177867      36.068927    
     13500   2.8852156      1.6742044      0              4.552207       33.326124    
     14000   3.0042029      1.4269725      0              4.4236649      30.302025    
     14500   3.0133414      1.5995042      0              4.6053122      32.408647    
     15000   3.0512398      1.5003256      0              4.5439373      30.471482    
     15500   3.0322361      1.6398489      0              4.6645044      32.576525    
     16000   3.3015904      1.7215358      0              5.0148722      34.004229    
     16500   3.0898819      1.4884536      0              4.5706109      30.764057    
     17000   2.9123533      1.6146043      0              4.5196767      32.005666    
     17500   2.9675833      1.5307134      0              4.4908777      31.378717    
     18000   2.9099552      1.5966994      0              4.4993797      32.311588    
     18500   2.9261322      1.6530545      0              4.5718714      32.957922    
     19000   2.790503       1.7633778      0              4.5469046      33.996444    
     19500   3.020793       1.6406813      0              4.6539223      32.405388    
     20000   3.2316542      1.7348722      0              4.9584473      34.674434    
     20500   2.7832077      1.7838304      0              4.5600801      34.957672    
     21000   3.0822263      1.8389642      0              4.913485       35.296684    
     21500   3.1351711      1.9323436      0              5.0596768      36.681461    
     22000   2.7832489      1.7918         0              4.5680908      33.999692    
     22500   2.8747672      1.7120876      0              4.5796679      33.464552    
     23000   3.1940011      1.6486788      0              4.8346949      32.696161    
     23500   3.1315962      1.5600659      0              4.6838331      31.476448    
     24000   3.1531476      1.638356       0              4.7836208      32.856756    
     24500   3.1504275      1.5245088      0              4.6670602      31.255347    
     25000   2.8433856      1.7677012      0              4.6039784      34.266647    
     25500   3.0272686      1.4965036      0              4.516204       30.748514    
     26000   2.8961112      1.6414487      0              4.5303196      32.757645    
     26500   3.0478655      1.4185503      0              4.4587962      30.0437      
     27000   2.955899       1.590921       0              4.5394303      32.537526    
     27500   2.9720761      1.6582884      0              4.6229344      32.404435    
     28000   2.8758277      1.6065227      0              4.4751608      32.051808    
     28500   2.9252926      1.5477547      0              4.4657341      31.634269    
     29000   2.9641109      1.4879107      0              4.4446114      30.9521      
     29500   3.0426185      1.4610372      0              4.4960492      30.741719    
     30000   2.8374122      1.7681946      0              4.5985133      34.212919    
     30500   2.7982508      1.7927316      0              4.5839867      34.532541    
     31000   3.2388535      1.5534132      0              4.7841696      32.188544    
     31500   3.1376935      1.6285885      0              4.7584378      32.512702    
     32000   3.0327116      1.5639229      0              4.5890527      31.632296    
     32500   3.1558098      1.5580337      0              4.705954       32.048245    
     33000   3.0622315      1.7228056      0              4.7773816      33.451967    
     33500   3.000542       1.242904       0              4.2359447      27.305693    
     34000   2.9814982      1.5350372      0              4.5090817      30.723335    
     34500   3.1401643      1.4519002      0              4.5842141      29.886488    
     35000   3.0642023      1.7438955      0              4.8004374      33.913624    
     35500   3.4293659      1.6898917      0              5.1106842      34.202579    
     36000   2.8176854      1.6516745      0              4.4623157      32.595831    
     36500   2.8414821      1.6898139      0              4.5241924      33.057416    
     37000   3.1017304      1.5664035      0              4.6603795      32.136652    
     37500   3.1247301      1.6033157      0              4.720234       32.361678    
     38000   3.1989981      1.7688292      0              4.9598298      34.931497    
     38500   3.0955502      1.6593676      0              4.7471789      32.997964    
     39000   3.3346725      1.5642006      0              4.8905364      31.680707    
     39500   3.0754796      1.4644996      0              4.5322905      29.795142    
     40000   2.7742643      1.869431       0              4.6367597      35.293542    
     40500   3.1322696      1.7079942      0              4.8324331      33.938203    
     41000   3.1879847      1.8173552      0              4.9973699      35.238931    
     41500   3.1574774      1.6126767      0              4.7622604      32.513527    
     42000   2.8562345      1.6707967      0              4.5198906      33.32986     
     42500   3.0765906      1.5098617      0              4.5787608      31.058995    
     43000   3.0311621      1.6972589      0              4.7208431      33.476367    
     43500   2.9854471      1.6819495      0              4.659933       33.079402    
     44000   2.8411444      1.6452136      0              4.4792551      33.157456    
     44500   3.0037434      1.5965217      0              4.5927558      32.208069    
     45000   3.094685       1.5752567      0              4.6622049      31.626207    
     45500   3.2742296      1.7658585      0              5.0319025      34.453784    
     46000   3.054363       1.8847447      0              4.9314718      35.548244    
     46500   3.1762912      1.7390811      0              4.9074315      34.229302    
     47000   2.767817       1.7760559      0              4.5369533      34.527314    
     47500   3.0858686      1.5355217      0              4.6136756      32.404355    
     48000   3.2018584      1.6137369      0              4.8075907      32.029707    
     48500   3.2500096      1.6690604      0              4.910945       33.821233    
     49000   3.319706       1.7771244      0              5.0885311      34.555054    
     49500   3.1340319      1.8693271      0              4.9955239      35.409077    
     50000   3.0907446      1.6562916      0              4.7393093      32.984399    
Loop time of 0.993898 on 8 procs for 50000 steps with 400 atoms

Performance: 43465213.743 tau/day, 50306.960 timesteps/s, 20.123 Matom-step/s
99.4% CPU use with 8 MPI tasks x 1 OpenMP threads

MPI task timing breakdown:
Section |  min time  |  avg time  |  max time  |%varavg| %total
---------------------------------------------------------------
Pair    | 0.082034   | 0.084424   | 0.087025   |   0.6 |  8.49
Neigh   | 0.11239    | 0.11385    | 0.1173     |   0.4 | 11.46
Comm    | 0.50613    | 0.52509    | 0.54275    |   1.7 | 52.83
Output  | 0.0012348  | 0.0017859  | 0.0055573  |   3.4 |  0.18
Modify  | 0.1303     | 0.15018    | 0.16862    |   4.1 | 15.11
Other   |            | 0.1186     |            |       | 11.93

Nlocal:             50 ave          52 max          46 min
Histogram: 1 0 0 1 0 1 1 0 1 3
Nghost:          45.75 ave          49 max          42 min
Histogram: 1 0 1 0 2 1 0 1 1 1
Neighs:        132.625 ave         144 max         120 min
Histogram: 1 0 2 1 0 0 1 1 1 1

Total # of neighbors = 1061
Ave neighs/atom = 2.6525
Neighbor list builds = 16890
Dangerous builds = 0
Generated 0 of 0 mixed pair_coeff terms from geometric mixing rule
Setting up Verlet run ...
  Unit style    : lj
  Current step  : 50000
  Time step     : 0.01
Per MPI rank memory allocation (min/avg/max) = 3.072 | 3.072 | 3.072 Mbytes
   Step          Temp          E_pair         E_mol          TotEng         Press     
     50000   3.0907446      1.6562916      0              4.7393093      32.984399    
     50500   3.2347108      1.6628497      0              4.8894737      32.992922    
     51000   3.0316157      1.6370346      0              4.6610713      32.92625     
     51500   2.8864513      1.6615209      0              4.5407561      32.746861    
     52000   3.0115308      1.7942496      0              4.7982516      34.654981    
     52500   3.0768637      1.3149672      0              4.3841387      28.204076    
     53000   3.0827745      1.5233995      0              4.598467       31.549963    
     53500   3.0121116      1.7101516      0              4.7147329      34.093464    
     54000   3.1875015      1.731682       0              4.9112147      33.702823    
     54500   2.6872607      1.5896812      0              4.2702237      31.4308      
     55000   2.7632872      1.5606118      0              4.3169908      31.393835    
     55500   2.7433064      1.5226071      0              4.2590553      31.053294    
     56000   2.7498644      1.4868402      0              4.22983        30.143116    
     56500   2.8605007      1.3461125      0              4.1994619      29.573974    
     57000   2.5820753      1.5674937      0              4.1431138      31.261706    
     57500   2.5097941      1.3589083      0              3.8624279      28.799063    
     58000   2.6566292      1.4927428      0              4.1427304      30.538587    
     58500   2.9476366      1.2761921      0              4.2164596      28.083452    
     59000   3.1696188      1.6747203      0              4.836415       32.976551    
     59500   2.6246912      1.3970001      0              4.0151296      28.882283    
     60000   2.5928809      1.5208264      0              4.1072251      31.044502    
     60500   2.8219277      1.2952891      0              4.1101619      27.276712    
     61000   2.6149208      1.250048       0              3.8584315      26.826294    
     61500   2.7193262      1.2227154      0              3.9352433      26.934085    
     62000   2.4824644      1.6016963      0              4.0779545      32.100171    
     62500   2.4594103      1.4241714      0              3.8774332      29.81511     
     63000   2.7269847      1.2206215      0              3.9407888      25.853177    
     63500   2.7076167      1.4798044      0              4.180652       30.420843    
     64000   2.688033       1.3595558      0              4.0408687      28.822157    
     64500   2.6372331      1.455966       0              4.086606       30.090666    
     65000   2.5290134      1.405992       0              3.9286828      29.29636     
     65500   2.7338137      1.352255       0              4.0792341      29.627037    
     66000   2.593535       1.3750911      0              3.9621423      28.453274    
     66500   2.7147913      1.135077       0              3.8430813      25.257949    
     67000   2.5844151      1.3452749      0              3.923229       28.461438    
     67500   2.4774466      1.2572336      0              3.7284866      27.292361    
     68000   2.7206745      1.2169631      0              3.9308359      27.124624    
     68500   2.4857297      1.3692409      0              3.8487563      29.290114    
     69000   2.2521542      1.4723337      0              3.7188575      29.223636    
     69500   2.421243       1.256466       0              3.6716559      27.71489     
     70000   2.2170677      1.2178003      0              3.4293253      25.70707     
     70500   2.2665894      1.2254674      0              3.4863903      26.098039    
     71000   2.3422422      1.228724       0              3.5651105      26.453584    
     71500   2.2980292      1.2608394      0              3.5531235      26.74998     
     72000   2.4048789      1.3535593      0              3.7524259      28.238345    
     72500   2.6476165      1.1666597      0              3.8076572      25.831169    
     73000   2.5921783      1.1769362      0              3.7626341      25.927209    
     73500   2.3638972      1.1218865      0              3.4798739      24.874636    
     74000   2.257124       1.2990363      0              3.5505176      27.433493    
     74500   2.2425695      1.3235734      0              3.5605364      28.058113    
     75000   2.4712657      1.1764993      0              3.6415868      26.111441    
     75500   2.3382827      1.1512053      0              3.4836423      25.376439    
     76000   2.3554869      1.3139401      0              3.6635383      27.901122    
     76500   2.258001       1.1498994      0              3.4022553      25.364138    
     77000   2.2627689      1.1927237      0              3.4498357      26.108575    
     77500   2.3401569      1.249528       0              3.5838345      26.541239    
     78000   2.2246383      1.2977492      0              3.5168258      27.392759    
     78500   2.3450196      1.0218249      0              3.360982       23.665344    
     79000   2.1462044      1.0255894      0              3.1664282      23.348057    
     79500   2.1635496      0.96092304     0              3.1190638      22.23166     
     80000   2.132143       1.0247691      0              3.1515818      22.977095    
     80500   2.1450102      1.0089402      0              3.1485879      22.877024    
     81000   2.0537116      1.0607216      0              3.109299       24.195773    
     81500   2.0947306      0.94917878     0              3.0386726      22.322047    
     82000   1.9812649      1.0322174      0              3.0085292      23.526574    
     82500   2.2075927      0.92318295     0              3.1252566      21.877694    
     83000   1.9398193      1.0127934      0              2.9477631      23.126869    
     83500   1.8052778      1.0888048      0              2.8895694      23.456554    
     84000   1.8376851      1.0369918      0              2.8700826      23.994905    
     84500   2.0385306      1.0431498      0              3.0765841      23.717197    
     85000   2.1536399      0.94224411     0              3.0904999      21.931797    
     85500   1.999532       0.9204593      0              2.9149925      21.603481    
     86000   1.9882487      0.96548825     0              2.9487663      22.305852    
     86500   2.0470504      0.92934257     0              2.9712753      21.592317    
     87000   1.9058637      0.92035162     0              2.8214506      20.942158    
     87500   2.0048198      0.96264252     0              2.9624503      22.753162    
     88000   1.982181       0.88917325     0              2.8663988      21.372374    
     88500   1.9057257      0.86888902     0              2.7698504      21.027562    
     89000   1.8509637      0.77873059     0              2.6250668      18.998045    
     89500   1.8317677      0.7167301      0              2.5439184      18.01855     
     90000   1.689376       0.81595141     0              2.5011039      20.059796    
     90500   1.7561024      0.68436503     0              2.4360771      17.597318    
     91000   1.7973056      0.72438009     0              2.5171924      18.606534    
     91500   1.7848284      0.78047395     0              2.5608403      19.280216    
     92000   1.782641       0.74594317     0              2.5241276      18.452121    
     92500   1.8012459      0.76444374     0              2.5611865      18.783069    
     93000   1.5584605      0.6947395      0              2.2493039      17.319695    
     93500   1.6269853      0.73093418     0              2.353852       18.114256    
     94000   1.754446       0.66265216     0              2.412712       17.037831    
     94500   1.6799513      0.83382295     0              2.5095744      20.179379    
     95000   1.9044934      0.70130626     0              2.6010385      17.60514     
     95500   1.7321792      0.75641416     0              2.4842629      18.281491    
     96000   1.7500925      0.73419542     0              2.4799127      18.169657    
     96500   1.722327       0.82637915     0              2.5444003      19.352794    
     97000   1.7461773      0.73364184     0              2.4754537      18.644998    
     97500   1.7148746      0.65671538     0              2.3673028      16.524886    
     98000   1.6611452      0.6988388      0              2.3558312      17.98276     
     98500   1.6579685      0.64774615     0              2.3015697      16.691147    
     99000   1.5776546      0.66216018     0              2.2358706      17.083617    
     99500   1.4719662      0.60144487     0              2.0697311      16.033692    
    100000   1.3498331      0.66048973     0              2.0069483      16.327946    
    100500   1.5336434      0.54297509     0              2.0727843      15.103222    
    101000   1.5494506      0.61843847     0              2.1640155      16.211152    
    101500   1.5882119      0.55769815     0              2.1419395      14.910619    
    102000   1.3427621      0.53373328     0              1.8731385      14.75617     
    102500   1.3906934      0.5627714      0              1.949988       15.601648    
    103000   1.434239       0.52040751     0              1.9510609      13.998166    
    103500   1.4622229      0.52094792     0              1.9795152      14.740159    
    104000   1.3333741      0.54889865     0              1.8789394      14.693592    
    104500   1.3321787      0.62253566     0              1.9513839      15.754653    
    105000   1.3486139      0.6231276      0              1.9683699      16.295344    
    105500   1.3336915      0.60180955     0              1.9321668      16.105153    
    106000   1.4127693      0.5617492      0              1.9709866      15.826576    
    106500   1.3336052      0.57655044     0              1.9068216      15.416788    
    107000   1.2544384      0.5323449      0              1.7836472      14.575188    
    107500   1.3142797      0.52274137     0              1.8337354      14.688266    
    108000   1.3304113      0.54164273     0              1.868728       14.954978    
    108500   1.3956178      0.54736204     0              1.9394908      14.713385    
    109000   1.2960876      0.60398056     0              1.8968279      15.749016    
    109500   1.2209048      0.59564315     0              1.8134957      15.730452    
    110000   1.2448883      0.47126724     0              1.7130433      12.905505    
    110500   1.212752       0.45200866     0              1.6617288      13.200733    
    111000   1.1446641      0.47926898     0              1.6210714      13.37793     
    111500   1.1072036      0.45667643     0              1.561112       12.686889    
    112000   1.1382984      0.47048455     0              1.6059372      12.963738    
    112500   1.2218957      0.42659099     0              1.6454319      12.327314    
    113000   1.118465       0.46318613     0              1.5788549      13.255276    
    113500   1.1435364      0.42213339     0              1.5628109      12.667905    
    114000   1.1709021      0.38582652     0              1.5538013      12.126012    
    114500   1.1124063      0.40869125     0              1.5183165      12.197113    
    115000   1.0774878      0.37968429     0              1.4544783      11.561142    
    115500   1.1166466      0.40185726     0              1.5157123      12.023524    
    116000   1.1420197      0.42468303     0              1.5638477      12.455791    
    116500   1.1817945      0.38887139     0              1.5677114      11.756627    
    117000   1.1311446      0.46393207     0              1.5922488      13.160976    
    117500   1.1261665      0.39006804     0              1.5134191      11.59567     
    118000   1.0589739      0.43687841     0              1.4932049      12.683441    
    118500   1.0305514      0.39171894     0              1.4196939      11.549037    
    119000   1.0141986      0.3923207      0              1.4039839      11.861204    
    119500   0.98314336     0.41835981     0              1.3990453      11.943353    
    120000   0.8729256      0.28758852     0              1.1583318      9.4858551    
    120500   0.94303716     0.28890783     0              1.2295874      9.8053532    
    121000   0.88569994     0.37188862     0              1.2553743      11.135855    
    121500   0.92467479     0.33767865     0              1.2600418      10.599246    
    122000   0.96216002     0.28264881     0              1.2424034      9.9435928    
    122500   0.89159519     0.364018       0              1.2533842      11.241975    
    123000   0.83241598     0.32547833     0              1.1558133      9.9310379    
    123500   0.83070231     0.3228059      0              1.1514315      10.174591    
    124000   0.83493272     0.31968654     0              1.1525319      10.492734    
    124500   0.84682808     0.31216044     0              1.1568714      9.780708     
    125000   0.8916172      0.28945523     0              1.1788434      9.5707039    
    125500   0.81693847     0.29246717     0              1.1073633      9.7189583    
    126000   0.81866552     0.24529714     0              1.061916       8.3369029    
    126500   0.7522595      0.2784216      0              1.0288004      8.9990262    
    127000   0.73628554     0.27951557     0              1.0139604      9.240705     
    127500   0.72297448     0.26945047     0              0.99061751     9.1435376    
    128000   0.74916194     0.20212262     0              0.94941166     7.5028509    
    128500   0.65786146     0.20074712     0              0.85696393     7.2865309    
    129000   0.66856868     0.23560536     0              0.90250263     7.9778792    
    129500   0.69603432     0.22212224     0              0.91641647     8.0386875    
    130000   0.71374608     0.19768135     0              0.90964306     7.3877852    
    130500   0.65857407     0.25586767     0              0.91279531     8.808065     
    131000   0.67969683     0.24888173     0              0.92687931     8.6492541    
    131500   0.6542227      0.22758787     0              0.88017501     8.2296833    
    132000   0.64493979     0.20923884     0              0.85256628     7.2138809    
    132500   0.60569929     0.2085098      0              0.81269484     7.5117526    
    133000   0.62805775     0.1839497      0              0.81043731     7.1004753    
    133500   0.58187664     0.21053784     0              0.79095978     7.6116967    
    134000   0.59953821     0.17487943     0              0.7729188      6.7574406    
    134500   0.57723972     0.18053191     0              0.75632852     6.9040714    
    135000   0.5785603      0.17736905     0              0.75448295     6.8315893    
    135500   0.52675992     0.18012514     0              0.70556816     6.8812283    
    136000   0.50783114     0.16123615     0              0.66779771     6.2764905    
    136500   0.50381166     0.16699867     0              0.6695508      6.2293369    
    137000   0.5368924      0.15460521     0              0.69015538     6.028529     
    137500   0.46131452     0.13227566     0              0.59243689     5.6667062    
    138000   0.43300577     0.14447153     0              0.57639479     5.77724      
    138500   0.42226846     0.12660971     0              0.54782249     5.3253982    
    139000   0.40334979     0.12184826     0              0.52418968     5.3238337    
    139500   0.39400467     0.11157424     0              0.5045939      5.0196556    
    140000   0.36905809     0.12089716     0              0.4890326      5.2389329    
    140500   0.36210483     0.11699552     0              0.47819509     5.0663589    
    141000   0.34866271     0.11525743     0              0.46304849     5.1336633    
    141500   0.35252735     0.089371893    0              0.44101792     4.12208      
    142000   0.32584998     0.097212384    0              0.42224774     4.3973172    
    142500   0.28755865     0.066427494    0              0.35326724     3.5361221    
    143000   0.29134719     0.077933893    0              0.36855271     3.9533162    
    143500   0.28924013     0.074795786    0              0.36331281     3.7418671    
    144000   0.28226367     0.071296909    0              0.35285492     3.3881184    
    144500   0.26757805     0.068607098    0              0.3355162      3.4919085    
    145000   0.26113038     0.068675958    0              0.32915351     3.5344757    
    145500   0.21811945     0.061587158    0              0.27916131     3.3334366    
    146000   0.22006151     0.041039881    0              0.26055123     2.4188731    
    146500   0.19496619     0.046130631    0              0.24060941     2.6497611    
    147000   0.18721236     0.035259858    0              0.22200419     2.2725273    
    147500   0.16564549     0.038901108    0              0.20413249     2.4709813    
    148000   0.15696545     0.034476339    0              0.19104937     2.3107102    
    148500   0.14905824     0.02974842     0              0.17843401     2.0717254    
    149000   0.12972312     0.026707573    0              0.15610638     1.8514815    
    149500   0.13058605     0.024363432    0              0.15462302     1.7915986    
    150000   0.09632193     0.020212515    0              0.11629364     1.5719569    
Loop time of 1.82787 on 8 procs for 100000 steps with 400 atoms

Performance: 47268187.633 tau/day, 54708.551 timesteps/s, 21.883 Matom-step/s
99.5% CPU use with 8 MPI tasks x 1 OpenMP threads

MPI task timing breakdown:
Section |  min time  |  avg time  |  max time  |%varavg| %total
---------------------------------------------------------------
Pair    | 0.14632    | 0.1502     | 0.15529    |   0.9 |  8.22
Neigh   | 0.14925    | 0.15145    | 0.1563     |   0.5 |  8.29
Comm    | 0.94862    | 0.98694    | 1.0224     |   2.6 | 53.99
Output  | 0.015561   | 0.015667   | 0.016284   |   0.2 |  0.86
Modify  | 0.261      | 0.30012    | 0.33686    |   5.8 | 16.42
Other   |            | 0.2235     |            |       | 12.23

Nlocal:             50 ave          55 max          46 min
Histogram: 2 0 2 1 0 0 0 0 2 1
Nghost:         46.125 ave          53 max          39 min
Histogram: 2 1 0 0 1 0 1 0 1 2
Neighs:         147.25 ave         163 max         135 min
Histogram: 2 1 1 1 0 0 0 0 1 2

Total # of neighbors = 1178
Ave neighs/atom = 2.945
Neighbor list builds = 23942
Dangerous builds = 0
Total wall time: 0:00:02
LAMMPS (15 Sep 2022)
OMP_NUM_THREADS environment is not set. Defaulting to 1 thread. (src/comm.cpp:98)
  using 1 OpenMP thread(s) per MPI task
Lattice spacing in x,y,z = 0.99014754 0.99014754 0.99014754
Created orthogonal box = (0 0 -0.49507377) to (19.802951 19.802951 0.49507377)
  4 by 2 by 1 MPI processor grid
Created 400 atoms
  using lattice units in orthogonal box = (0 0 -0.49507377) to (19.802951 19.802951 0.49507377)
  create_atoms CPU = 0.000 seconds
Generated 0 of 0 mixed pair_coeff terms from geometric mixing rule
Neighbor list info ...
  update: every = 1 steps, delay = 0 steps, check = yes
  max neighbors/atom: 2000, page size: 100000
  master list distance cutoff = 1.3
  ghost atom cutoff = 1.3
  binsize = 0.65, bins = 31 31 2
  1 neighbor lists, perpetual/occasional/extra = 1 0 0
  (1) pair lj/cut, perpetual
      attributes: half, newton on
      pair build: half/bin/atomonly/newton
      stencil: half/bin/2d
      bin: standard
Setting up Verlet run ...
  Unit style    : lj
  Current step  : 0
  Time step     : 0.01
Per MPI rank memory allocation (min/avg/max) = 3.048 | 3.048 | 3.048 Mbytes
   Step          Temp          E_pair         E_mol          TotEng         Press     
         0   3              0.074928385    0              3.0674284      11.002771    
       500   3.2390951      1.8027314      0              5.0337288      35.704476    
      1000   3.2636833      1.5594321      0              4.8149561      32.766133    
      1500   3.1741538      1.6206326      0              4.786851       33.715308    
      2000   2.7381564      1.37428        0              4.105591       28.730997    
      2500   2.8748024      1.5491108      0              4.4167262      31.997863    
      3000   3.0558786      1.607974       0              4.6562129      32.605484    
      3500   2.9280067      1.6329579      0              4.5536446      33.196604    
      4000   2.9420618      1.7072923      0              4.6419989      33.965819    
      4500   3.0599073      1.802615       0              4.8548725      35.624425    
      5000   3.2032216      1.6281942      0              4.8234077      33.696947    
      5500   2.9223072      1.8358525      0              4.7508539      36.361761    
      6000   3.2839836      1.6023209      0              4.8780945      33.345798    
      6500   2.802761       1.5071842      0              4.3029383      30.717709    
      7000   2.9243419      1.6582002      0              4.5752313      33.942518    
      7500   3.1181959      1.563951       0              4.6743514      32.692393    
      8000   3.0646041      1.8995257      0              4.9564684      36.549475    
      8500   2.9949356      1.6710991      0              4.6585474      33.227171    
      9000   3.0403122      1.8662846      0              4.898996       35.618489    
      9500   3.3248936      1.860763       0              5.1773443      35.89756     
     10000   3.0269652      1.8541991      0              4.8735969      35.80035     
     10500   3.172603       1.9612723      0              5.1259438      37.135805    
     11000   2.9498719      1.6990851      0              4.6415823      34.15469     
     11500   3.1602938      1.7634855      0              4.9158786      35.007749    
     12000   2.8839908      1.5925993      0              4.4693801      32.313031    
     12500   2.942328       1.7658213      0              4.7007936      34.319597    
     13000   3.1814028      1.8451274      0              5.0185766      36.371892    
     13500   2.6835882      1.6350349      0              4.3119141      32.85808     
     14000   2.8483611      1.7274577      0              4.5686979      34.743559    
     14500   3.0170363      1.6373122      0              4.646806       32.817231    
     15000   2.942093       1.7424504      0              4.6771881      34.812798    
     15500   3.0383727      1.6508254      0              4.6816021      32.983676    
     16000   3.086933       1.7334854      0              4.8127011      34.119726    
     16500   3.1143338      1.3582743      0              4.4648223      29.437013    
     17000   3.0989964      1.5823856      0              4.6736345      32.450102    
     17500   3.0146296      1.6006244      0              4.6077174      32.109952    
     18000   2.972407       1.7448489      0              4.7098248      34.340518    
     18500   3.1242641      1.8342888      0              4.9507423      35.270975    
     19000   3.2969433      1.6500589      0              4.9387598      33.979406    
     19500   2.9651666      1.4805019      0              4.4382557      30.994255    
     20000   2.9665788      1.6867736      0              4.6459359      33.605972    
     20500   3.0569601      1.4755039      0              4.5248215      31.010825    
     21000   3.1316914      1.6761396      0              4.8000018      34.074167    
     21500   3.4006575      1.6549126      0              5.0470684      34.909086    
     22000   3.0610647      1.5370784      0              4.5904905      32.026377    
     22500   3.2324598      1.5702484      0              4.7946271      32.989118    
     23000   2.9582212      1.704798       0              4.6556236      34.772102    
     23500   3.1477527      1.5395636      0              4.679447       32.078821    
     24000   2.8104907      1.5870525      0              4.390517       32.18685     
     24500   2.96173        1.6431947      0              4.5975204      33.035094    
     25000   3.0135887      1.8498171      0              4.8558718      36.965779    
     25500   3.0572021      1.6539277      0              4.7034869      33.169672    
     26000   2.7163133      1.5797134      0              4.2892359      32.923347    
     26500   2.9699716      1.7447413      0              4.7072879      34.814934    
     27000   3.0201652      1.4758382      0              4.488453       30.66677     
     27500   2.7601028      1.9451446      0              4.6983471      37.352552    
     28000   3.1042059      1.6444931      0              4.7409386      33.298281    
     28500   2.8243048      1.7124681      0              4.5297121      34.897233    
     29000   3.1482051      1.7363878      0              4.8767224      35.036104    
     29500   3.1288759      1.5945887      0              4.7156425      33.221868    
     30000   3.192968       1.4613995      0              4.6463851      31.174411    
     30500   2.9943567      1.7560693      0              4.7429401      34.828069    
     31000   3.1093035      2.0298646      0              5.1313948      38.389634    
     31500   2.9573591      1.824283       0              4.7742487      35.793957    
     32000   2.9287866      1.7282354      0              4.6497         34.255906    
     32500   2.9581807      1.5879041      0              4.5386893      32.351095    
     33000   3.0542362      1.6522628      0              4.6988633      33.649894    
     33500   3.2214025      1.6364731      0              4.8498221      33.337103    
     34000   2.9472619      1.5462236      0              4.4861173      31.854465    
     34500   3.0499994      1.6674823      0              4.7098567      33.406785    
     35000   3.0406051      1.6429002      0              4.6759038      33.937398    
     35500   3.0814129      1.7268359      0              4.8005452      34.328894    
     36000   3.1613309      1.9682137      0              5.1216413      37.469548    
     36500   3.3047436      1.7121625      0              5.0086442      34.388217    
     37000   3.0660904      1.5456458      0              4.604071       31.996884    
     37500   2.9927196      1.8898164      0              4.8750542      36.220161    
     38000   2.8483148      1.7100986      0              4.5512926      33.977685    
     38500   2.8653258      1.6829443      0              4.5411067      33.77803     
     39000   2.881169       1.4648944      0              4.3388606      30.344464    
     39500   3.1137839      1.3843308      0              4.4903302      30.677379    
     40000   3.0608814      1.7587104      0              4.8119396      34.786509    
     40500   3.1543427      1.5396485      0              4.6861053      31.777365    
     41000   3.0645967      1.6304667      0              4.6874019      32.89156     
     41500   2.9876394      1.6226933      0              4.6028636      32.207493    
     42000   2.9783331      1.5539826      0              4.5248699      31.867082    
     42500   2.9134839      1.739048       0              4.6452482      34.110282    
     43000   3.2134811      1.5882579      0              4.7937053      32.8886      
     43500   3.0622353      1.8618925      0              4.9164722      36.011365    
     44000   3.2170815      1.710171       0              4.9192098      34.723154    
     44500   3.0722458      1.7227854      0              4.7873506      34.744441    
     45000   3.0919116      1.7769817      0              4.8611635      35.311256    
     45500   3.0919095      1.8612349      0              4.9454146      35.65579     
     46000   2.9129893      1.7487958      0              4.6545026      34.770963    
     46500   3.0453305      1.6187832      0              4.6565004      33.21859     
     47000   3.0107862      1.6493039      0              4.6525632      33.309458    
     47500   3.0911678      1.5567106      0              4.6401505      33.10723     
     48000   2.8843898      1.6483924      0              4.5255712      33.578575    
     48500   3.1573376      1.6181926      0              4.7676368      33.4465      
     49000   2.8072936      1.5373093      0              4.3375847      32.053682    
     49500   2.9334507      1.5821055      0              4.5082225      32.830635    
     50000   2.9147234      1.7598222      0              4.6672588      34.95887     
Loop time of 1.00528 on 8 procs for 50000 steps with 400 atoms

Performance: 42972950.290 tau/day, 49737.211 timesteps/s, 19.895 Matom-step/s
99.3% CPU use with 8 MPI tasks x 1 OpenMP threads

MPI task timing breakdown:
Section |  min time  |  avg time  |  max time  |%varavg| %total
---------------------------------------------------------------
Pair    | 0.083609   | 0.086927   | 0.089368   |   0.6 |  8.65
Neigh   | 0.11038    | 0.11164    | 0.1137     |   0.3 | 11.11
Comm    | 0.52093    | 0.53387    | 0.5475     |   1.5 | 53.11
Output  | 0.0013063  | 0.0018745  | 0.005769   |   3.4 |  0.19
Modify  | 0.13298    | 0.15137    | 0.1681     |   4.0 | 15.06
Other   |            | 0.1196     |            |       | 11.90

Nlocal:             50 ave          53 max          46 min
Histogram: 1 0 0 0 2 2 0 1 1 1
Nghost:           45.5 ave          51 max          39 min
Histogram: 1 1 0 1 0 1 1 0 2 1
Neighs:        135.875 ave         147 max         122 min
Histogram: 1 0 0 0 2 1 2 1 0 1

Total # of neighbors = 1087
Ave neighs/atom = 2.7175
Neighbor list builds = 16878
Dangerous builds = 0
Generated 0 of 0 mixed pair_coeff terms from geometric mixing rule
Setting up Verlet run ...
  Unit style    : lj
  Current step  : 50000
  Time step     : 0.01
Per MPI rank memory allocation (min/avg/max) = 3.072 | 3.072 | 3.072 Mbytes
   Step          Temp          E_pair         E_mol          TotEng         Press     
     50000   2.9147234      1.7598222      0              4.6672588      34.95887     
     50500   2.8837946      1.7768672      0              4.6534523      35.232234    
     51000   2.9183767      1.6813884      0              4.5924691      33.909293    
     51500   3.1559589      1.5985521      0              4.7466211      32.854384    
     52000   2.9232099      1.8170653      0              4.7329672      35.446196    
     52500   2.7816589      1.8116916      0              4.5863963      35.520569    
     53000   2.8570225      1.6734979      0              4.5233779      33.82716     
     53500   2.8121972      1.7588888      0              4.5640554      34.785978    
     54000   2.7712409      1.5639461      0              4.3282589      31.922466    
     54500   2.7647782      1.5874947      0              4.3453609      32.169243    
     55000   2.7959828      1.4016542      0              4.190647       29.343106    
     55500   2.5627231      1.725047       0              4.2813633      34.335358    
     56000   2.703481       1.6370927      0              4.333815       32.930878    
     56500   2.5685442      1.3995812      0              3.961704       29.4406      
     57000   2.8297598      1.3657904      0              4.1884757      28.770615    
     57500   2.7027349      1.5095083      0              4.2054864      30.976658    
     58000   2.6834354      1.6152306      0              4.2919575      32.787837    
     58500   2.7719066      1.3583462      0              4.123323       28.772654    
     59000   3.0038397      1.2489729      0              4.2453029      27.943321    
     59500   2.8599105      1.3067741      0              4.1595348      28.262633    
     60000   2.9004872      1.4586684      0              4.3519044      30.165385    
     60500   2.9321075      1.1643483      0              4.0891255      26.697796    
     61000   2.8463092      1.5629256      0              4.4021191      32.012575    
     61500   2.701195       1.62296        0              4.317402       32.90345     
     62000   2.6969434      1.4949542      0              4.1851553      31.039982    
     62500   2.5910282      1.4644981      0              4.0490487      31.509858    
     63000   2.5334262      1.200881       0              3.7279737      26.775524    
     63500   2.4612782      1.232542       0              3.6876669      26.929393    
     64000   2.6937085      1.3166673      0              4.0036415      28.585286    
     64500   2.5976242      1.4648701      0              4.0560002      30.25902     
     65000   2.6370177      1.463392       0              4.0938172      30.168938    
     65500   2.7346009      1.4458331      0              4.1735974      29.889038    
     66000   2.4748532      1.5362444      0              4.0049104      31.18373     
     66500   2.546169       1.4849998      0              4.0248034      30.916116    
     67000   2.593247       1.2510675      0              3.8378314      28.099159    
     67500   2.6716903      1.3575075      0              4.0225186      30.058147    
     68000   2.2245919      1.1802857      0              3.3993161      26.836253    
     68500   2.3909474      1.2280826      0              3.6130526      26.887379    
     69000   2.5192084      1.2428014      0              3.7557118      27.798428    
     69500   2.4231956      1.3901097      0              3.8072473      29.01191     
     70000   2.4437672      1.2797535      0              3.7174114      27.626025    
     70500   2.4135396      1.3739103      0              3.781416       29.358593    
     71000   2.4998613      1.1157434      0              3.6093551      25.636888    
     71500   2.5527491      1.1988911      0              3.7452584      26.563185    
     72000   2.3917482      1.1777348      0              3.5635036      25.756109    
     72500   2.3871802      1.2027063      0              3.5839185      26.643728    
     73000   2.4473644      1.0930139      0              3.5342598      24.413703    
     73500   2.3683385      1.1266118      0              3.4890295      25.251906    
     74000   2.1063833      1.0692953      0              3.1704126      23.32605     
     74500   2.3930213      1.0070664      0              3.3941051      23.050024    
     75000   2.2711737      1.2326674      0              3.4981632      27.86027     
     75500   2.4136343      1.229653       0              3.6372532      26.95129     
     76000   2.3457171      1.1468968      0              3.4867496      25.814023    
     76500   2.3711312      1.0457691      0              3.4109725      24.254406    
     77000   2.1884174      1.1209185      0              3.3038648      25.190562    
     77500   2.1913412      1.0674957      0              3.2533585      24.391237    
     78000   2.1742141      0.9501002      0              3.1188788      22.342895    
     78500   2.0241339      1.0913349      0              3.1104084      24.293758    
     79000   2.020622       0.91775075     0              2.9333212      22.234619    
     79500   2.2874513      0.99355032     0              3.275283       23.556838    
     80000   2.0927304      1.0560616      0              3.1435602      24.260897    
     80500   2.1933661      0.94510699     0              3.1329897      23.090309    
     81000   2.0627562      1.0185919      0              3.0761912      23.576189    
     81500   1.9741331      1.0058453      0              2.975043       23.20717     
     82000   2.1885419      0.95298891     0              3.1360594      21.860096    
     82500   2.0354196      0.99346965     0              3.0238007      23.178477    
     83000   2.0721322      0.84137711     0              2.9083289      20.933136    
     83500   2.038051       1.0078258      0              3.0407816      22.493188    
     84000   2.0839792      0.87435833     0              2.9531276      21.482012    
     84500   1.9968377      0.84033183     0              2.8321775      20.646226    
     85000   1.9596568      0.9468818      0              2.9016395      22.873038    
     85500   2.0563513      0.91761312     0              2.9688236      22.154389    
     86000   1.8839607      0.98851546     0              2.8677663      23.156977    
     86500   1.8256036      0.91865805     0              2.7396977      21.323372    
     87000   1.9397585      0.85522021     0              2.7901294      20.460961    
     87500   1.8771479      1.0156585      0              2.8881136      22.507502    
     88000   1.9901898      0.96795929     0              2.9531736      22.31792     
     88500   1.9685203      1.0576305      0              3.0212295      23.528568    
     89000   2.0957739      0.83261621     0              2.9231507      20.316358    
     89500   1.9812066      0.79852633     0              2.7747799      20.029799    
     90000   1.8457304      0.78671249     0              2.6278285      19.406515    
     90500   1.7808254      0.8520394      0              2.6284128      20.858604    
     91000   1.857269       0.76269532     0              2.6153211      19.236306    
     91500   1.685974       0.86998624     0              2.5517453      20.736865    
     92000   1.8143335      0.75816738     0              2.567965       19.254159    
     92500   1.7334786      0.84633802     0              2.575483       20.595874    
     93000   1.7808109      0.74032068     0              2.5166795      18.62288     
     93500   1.8175746      0.66942178     0              2.4824524      17.967947    
     94000   1.7190319      0.64946059     0              2.3641949      17.40173     
     94500   1.5674319      0.78794335     0              2.3514567      19.628332    
     95000   1.7360816      0.55915384     0              2.2908952      15.67595     
     95500   1.7200563      0.70764361     0              2.4233997      18.615291    
     96000   1.6774916      0.70325308     0              2.376551       18.010978    
     96500   1.7260676      0.67953348     0              2.4012859      17.441542    
     97000   1.7141924      0.72493076     0              2.4348377      18.458608    
     97500   1.6751727      0.68647603     0              2.3574608      17.53649     
     98000   1.5788994      0.781284       0              2.3562361      19.496814    
     98500   1.7901327      0.59899304     0              2.3846504      16.24568     
     99000   1.5096661      0.68570675     0              2.1915987      17.078609    
     99500   1.5452502      0.66840538     0              2.2097925      17.449662    
    100000   1.5732186      0.68543452     0              2.2547201      17.898438    
    100500   1.6592167      0.64753057     0              2.3025992      17.569877    
    101000   1.5191933      0.71768307     0              2.2330783      18.149751    
    101500   1.5746662      0.62971597     0              2.2004455      17.013755    
    102000   1.4622626      0.66194595     0              2.1205529      16.98071     
    102500   1.4941516      0.72320372     0              2.2136199      18.503799    
    103000   1.6909589      0.65426307     0              2.3409946      16.918965    
    103500   1.4520354      0.65106004     0              2.0994653      16.851513    
    104000   1.4072403      0.64778185     0              2.051504       16.846926    
    104500   1.4131137      0.67269485     0              2.0822757      17.216406    
    105000   1.4003928      0.59666039     0              1.9935522      15.943601    
    105500   1.3566095      0.63751315     0              1.9907311      16.354519    
    106000   1.2035468      0.53198981     0              1.7325277      14.901192    
    106500   1.2567927      0.59966671     0              1.8533174      15.683546    
    107000   1.3507823      0.52626583     0              1.8736711      14.693829    
    107500   1.3493804      0.52346127     0              1.8694682      15.072468    
    108000   1.2467106      0.58676542     0              1.8303592      16.269543    
    108500   1.3967265      0.5849574      0              1.9781921      15.652372    
    109000   1.3716507      0.5224393      0              1.8906608      14.834193    
    109500   1.302897       0.54208113     0              1.8417209      14.988097    
    110000   1.2753356      0.53325579     0              1.805403       15.159442    
    110500   1.1737488      0.63463201     0              1.8054464      16.546774    
    111000   1.2252964      0.5524598      0              1.774693       15.116625    
    111500   1.2858342      0.48202135     0              1.764641       13.748445    
    112000   1.3064325      0.50824517     0              1.8114116      14.451399    
    112500   1.1757549      0.46352889     0              1.6363444      13.552988    
    113000   1.1574828      0.47729181     0              1.6318809      13.523059    
    113500   1.1390426      0.46070007     0              1.5968951      13.644511    
    114000   1.076574       0.4668138      0              1.5406964      13.231149    
    114500   1.0924966      0.42338222     0              1.5131476      12.889712    
    115000   1.1094743      0.3412598      0              1.4479605      11.101097    
    115500   1.0807974      0.4336286      0              1.511724       12.979766    
    116000   1.1838945      0.36938931     0              1.5503241      11.275718    
    116500   1.1540039      0.44451738     0              1.5956362      13.240126    
    117000   1.0683647      0.42944314     0              1.495137       12.774029    
    117500   1.0075898      0.41517667     0              1.4202475      12.755096    
    118000   1.0077465      0.41865104     0              1.4238782      12.749295    
    118500   1.0047803      0.38935674     0              1.3916251      11.877052    
    119000   0.91621459     0.45494049     0              1.3688645      13.413147    
    119500   0.96277373     0.38652803     0              1.3468948      11.670656    
    120000   0.97062259     0.37478059     0              1.3429766      12.019182    
    120500   0.95685141     0.35598556     0              1.3104448      11.428044    
    121000   0.94676114     0.30356171     0              1.2479559      10.112972    
    121500   0.8426549      0.3285085      0              1.1690568      10.592544    
    122000   0.94862548     0.28166203     0              1.2279159      9.6152487    
    122500   0.86757957     0.34720651     0              1.2126171      10.925097    
    123000   0.88407717     0.28958412     0              1.1714511      9.569872     
    123500   0.87043471     0.2846283      0              1.1528869      9.7367288    
    124000   0.8056474      0.32221362     0              1.1258469      10.513089    
    124500   0.76533714     0.31987082     0              1.0832946      10.321833    
    125000   0.80681832     0.29713801     0              1.1019393      9.4985491    
    125500   0.77564138     0.31724121     0              1.0909435      10.515485    
    126000   0.77210448     0.29581158     0              1.0659858      10.082442    
    126500   0.81908114     0.27709647     0              1.0941299      9.3979414    
    127000   0.79212168     0.33970604     0              1.1298474      10.859988    
    127500   0.80924575     0.29788175     0              1.1051044      9.6570867    
    128000   0.76424931     0.26389671     0              1.0262354      8.8245401    
    128500   0.76100127     0.23951561     0              0.99861437     8.5479686    
    129000   0.70212826     0.28747338     0              0.98784632     9.5710302    
    129500   0.71664027     0.26243142     0              0.97728009     8.8243551    
    130000   0.68292441     0.25116487     0              0.93238197     8.503437     
    130500   0.65753547     0.24157879     0              0.89747042     8.644205     
    131000   0.62865155     0.19382219     0              0.82090211     7.4694556    
    131500   0.61465163     0.23562615     0              0.84874115     8.3163448    
    132000   0.60415014     0.19303378     0              0.79567354     7.6599287    
    132500   0.57160264     0.20963269     0              0.77980632     7.6141644    
    133000   0.61527497     0.17788285     0              0.79161963     6.8557388    
    133500   0.58025234     0.19994604     0              0.77874775     7.4491856    
    134000   0.54746002     0.21858155     0              0.76467292     8.0218746    
    134500   0.57804145     0.18433694     0              0.76093329     7.1693065    
    135000   0.54698293     0.18993954     0              0.73555501     7.0076483    
    135500   0.51465728     0.1953672      0              0.70873783     7.1554438    
    136000   0.47391999     0.14114399     0              0.61387918     5.8231903    
    136500   0.45276036     0.1518219      0              0.60345037     6.2763412    
    137000   0.45921926     0.16432318     0              0.62239439     6.4593093    
    137500   0.45634984     0.14431176     0              0.59952072     5.9271017    
    138000   0.40564695     0.15970341     0              0.56433625     6.435938     
    138500   0.4530687      0.11798833     0              0.56992435     5.3974328    
    139000   0.4226683      0.13306049     0              0.55467212     5.7592788    
    139500   0.37482594     0.12168349     0              0.49557236     5.4250077    
    140000   0.35079147     0.12477056     0              0.47468505     5.5066389    
    140500   0.33567071     0.11872544     0              0.45355697     5.2273104    
    141000   0.36347095     0.10597255     0              0.46853483     4.9598921    
    141500   0.35399027     0.11745233     0              0.47055763     5.2259286    
    142000   0.34195875     0.095417676    0              0.43652153     4.6285133    
    142500   0.34138059     0.083323359    0              0.4238505      4.3449918    
    143000   0.30619917     0.087170968    0              0.39260464     4.3548722    
    143500   0.26153299     0.095907791    0              0.35678695     4.3847156    
    144000   0.27541961     0.074563094    0              0.34929416     3.8658814    
    144500   0.28114871     0.069918388    0              0.35036422     3.641121     
    145000   0.25452434     0.069776798    0              0.32366482     3.8550969    
    145500   0.22766802     0.077910537    0              0.30500939     3.9564407    
    146000   0.20679074     0.063517671    0              0.26979144     3.498103     
    146500   0.18887829     0.044295781    0              0.23270188     2.7142663    
    147000   0.18639419     0.048542336    0              0.23447054     2.9575768    
    147500   0.18330208     0.040006566    0              0.22285039     2.6503693    
    148000   0.15904885     0.034287676    0              0.19293891     2.380655     
    148500   0.15251098     0.031330013    0              0.18345971     2.0612783    
    149000   0.11809622     0.026861318    0              0.1446623      2.0145495    
    149500   0.11196231     0.025132364    0              0.13681477     1.7641514    
    150000   0.10159104     0.018119918    0              0.11945698     1.5200909    
Loop time of 1.82019 on 8 procs for 100000 steps with 400 atoms

Performance: 47467687.490 tau/day, 54939.453 timesteps/s, 21.976 Matom-step/s
99.3% CPU use with 8 MPI tasks x 1 OpenMP threads

MPI task timing breakdown:
Section |  min time  |  avg time  |  max time  |%varavg| %total
---------------------------------------------------------------
Pair    | 0.14449    | 0.15019    | 0.15497    |   0.9 |  8.25
Neigh   | 0.1408     | 0.1431     | 0.14745    |   0.5 |  7.86
Comm    | 0.96669    | 0.99271    | 1.018      |   2.2 | 54.54
Output  | 0.01481    | 0.014918   | 0.015408   |   0.2 |  0.82
Modify  | 0.25867    | 0.29692    | 0.33149    |   5.8 | 16.31
Other   |            | 0.2224     |            |       | 12.22

Nlocal:             50 ave          52 max          49 min
Histogram: 4 0 0 1 0 0 2 0 0 1
Nghost:         47.125 ave          50 max          45 min
Histogram: 2 0 0 0 3 0 2 0 0 1
Neighs:          147.5 ave         156 max         138 min
Histogram: 1 1 0 0 0 3 0 1 1 1

Total # of neighbors = 1180
Ave neighs/atom = 2.95
Neighbor list builds = 23852
Dangerous builds = 0
Total wall time: 0:00:02
LAMMPS (15 Sep 2022)
OMP_NUM_THREADS environment is not set. Defaulting to 1 thread. (src/comm.cpp:98)
  using 1 OpenMP thread(s) per MPI task
Lattice spacing in x,y,z = 0.98532928 0.98532928 0.98532928
Created orthogonal box = (0 0 -0.49266464) to (19.706586 19.706586 0.49266464)
  4 by 2 by 1 MPI processor grid
Created 400 atoms
  using lattice units in orthogonal box = (0 0 -0.49266464) to (19.706586 19.706586 0.49266464)
  create_atoms CPU = 0.000 seconds
Generated 0 of 0 mixed pair_coeff terms from geometric mixing rule
Neighbor list info ...
  update: every = 1 steps, delay = 0 steps, check = yes
  max neighbors/atom: 2000, page size: 100000
  master list distance cutoff = 1.3
  ghost atom cutoff = 1.3
  binsize = 0.65, bins = 31 31 2
  1 neighbor lists, perpetual/occasional/extra = 1 0 0
  (1) pair lj/cut, perpetual
      attributes: half, newton on
      pair build: half/bin/atomonly/newton
      stencil: half/bin/2d
      bin: standard
Setting up Verlet run ...
  Unit style    : lj
  Current step  : 0
  Time step     : 0.01
Per MPI rank memory allocation (min/avg/max) = 3.048 | 3.048 | 3.048 Mbytes
   Step          Temp          E_pair         E_mol          TotEng         Press     
         0   3              0.17196593     0              3.1644659      15.606082    
       500   3.1278784      1.85468        0              4.9747388      36.87774     
      1000   3.4868562      1.5692979      0              5.0474369      33.038631    
      1500   3.132075       1.6200754      0              4.7443202      33.392388    
      2000   3.0462383      1.949884       0              4.9885067      37.9372      
      2500   2.995097       1.5820681      0              4.5696773      33.441684    
      3000   3.1710641      1.6390602      0              4.8021967      34.812123    
      3500   3.0586097      1.613515       0              4.6644782      33.610606    
      4000   2.8141969      1.6924013      0              4.4995627      34.507186    
      4500   2.997962       1.9144499      0              4.9049169      36.743678    
      5000   3.2464354      1.6147885      0              4.8531078      33.220039    
      5500   3.0059181      1.8313245      0              4.8297278      36.773132    
      6000   3.2592799      1.5472292      0              4.798361       32.99288     
      6500   2.9953701      1.6892726      0              4.6771543      34.362328    
      7000   2.9669889      1.6198598      0              4.5794313      34.517943    
      7500   3.0294856      1.4962318      0              4.5181437      30.785552    
      8000   2.8760446      1.6620406      0              4.5308951      34.137161    
      8500   2.7874304      1.6442014      0              4.4246633      33.492065    
      9000   3.14593        1.4284044      0              4.5664696      30.910024    
      9500   2.9422712      1.9400117      0              4.8749272      37.372167    
     10000   2.7512372      1.6632901      0              4.4076491      33.526397    
     10500   2.8867071      1.6792447      0              4.5587351      34.273654    
     11000   3.1697384      1.6052012      0              4.7670152      32.767149    
     11500   3.0441868      1.9274169      0              4.9639932      37.856825    
     12000   3.1207481      1.7679138      0              4.88086        35.778582    
     12500   3.1221605      1.6022573      0              4.7166124      33.024105    
     13000   3.0976368      2.026154       0              5.1160467      38.392279    
     13500   2.72869        1.672306       0              4.3941743      34.295179    
     14000   2.9001792      1.5915657      0              4.4844944      32.989437    
     14500   2.9916771      1.6703118      0              4.6545097      33.876767    
     15000   3.2143035      2.0973106      0              5.3035783      39.652335    
     15500   3.0134324      1.9575431      0              4.9634419      37.743394    
     16000   3.1097039      1.7326155      0              4.8345451      34.910098    
     16500   3.0412535      1.7714628      0              4.8051132      35.579853    
     17000   3.1718696      1.5873898      0              4.7513297      33.115088    
     17500   2.7832064      1.8713111      0              4.6475596      35.540114    
     18000   2.8360637      1.7630446      0              4.5920182      35.604146    
     18500   2.9283121      1.7682092      0              4.6892005      35.935354    
     19000   2.9324938      1.8085451      0              4.7337076      36.237113    
     19500   3.1334873      1.6570421      0              4.7826957      34.334922    
     20000   3.167321       1.6531098      0              4.8125125      34.53044     
     20500   3.3039023      1.7435488      0              5.0391913      34.774694    
     21000   2.786298       1.7983223      0              4.5776545      35.519332    
     21500   2.993669       1.6319493      0              4.6181342      34.523923    
     22000   2.9841497      1.6936124      0              4.6703018      34.121583    
     22500   2.9555867      1.7698627      0              4.7180604      34.175447    
     23000   3.1361714      1.9700552      0              5.0983861      38.587033    
     23500   3.2407611      1.5336215      0              4.7662806      31.9992      
     24000   3.3399875      1.7227284      0              5.0543659      35.18588     
     24500   2.9019727      1.5817129      0              4.4764306      32.837443    
     25000   3.1157061      1.5444109      0              4.6523277      32.860059    
     25500   3.0801607      1.6436572      0              4.7161175      33.791406    
     26000   2.9061047      1.9468557      0              4.8456951      38.366448    
     26500   3.0606975      1.6591322      0              4.7121779      33.828247    
     27000   3.0461031      1.7486257      0              4.7871136      34.688511    
     27500   3.2169729      1.7426142      0              4.9515447      35.013497    
     28000   2.8211367      1.6953811      0              4.5094649      34.78964     
     28500   3.0149196      1.6760577      0              4.6834401      34.528879    
     29000   3.3537328      1.6228249      0              4.9681734      34.051245    
     29500   3.3074987      1.5055639      0              4.8047939      32.03051     
     30000   2.8703962      1.7604276      0              4.6236478      35.127819    
     30500   2.8602315      1.5515023      0              4.4045832      32.544878    
     31000   2.9150084      1.7746714      0              4.6823923      35.479899    
     31500   3.0439585      1.4407047      0              4.4770533      31.430201    
     32000   3.0655798      1.7587139      0              4.8166297      35.879977    
     32500   3.1369403      1.7200731      0              4.8491711      35.365657    
     33000   2.9377122      1.5544129      0              4.4847808      31.565715    
     33500   2.8303185      1.6305749      0              4.4538176      33.667077    
     34000   2.7050254      1.724956       0              4.4232189      33.894419    
     34500   3.1349563      1.4095777      0              4.5366966      30.385028    
     35000   2.9448869      1.6702189      0              4.6077436      33.756878    
     35500   2.9498926      1.9205654      0              4.8630832      37.487686    
     36000   2.7396884      1.7329075      0              4.4657467      35.052787    
     36500   2.9033698      1.5790939      0              4.4752052      33.163399    
     37000   2.8391456      1.4874657      0              4.3195134      32.470424    
     37500   2.8092891      1.7499207      0              4.5521866      34.936502    
     38000   3.060874       1.7147171      0              4.7679388      34.326369    
     38500   3.1833492      1.7556653      0              4.9310561      35.76102     
     39000   2.9429378      1.4989781      0              4.4345586      32.079171    
     39500   2.9714393      1.7138262      0              4.6778369      34.661644    
     40000   3.1435088      1.5627482      0              4.6983982      32.658957    
     40500   2.9438407      1.9691508      0              4.9056319      38.16093     
     41000   2.9428638      1.6546016      0              4.5901083      34.018166    
     41500   2.9658699      1.5654183      0              4.5238735      32.452316    
     42000   2.9435447      1.5926317      0              4.5288175      33.057474    
     42500   2.8300959      1.4512285      0              4.2742492      30.443863    
     43000   2.8076554      1.8210386      0              4.6216749      35.731894    
     43500   3.1033039      1.5838342      0              4.6793799      32.658823    
     44000   2.9689113      1.703061       0              4.6645501      34.527205    
     44500   3.0273582      1.6078338      0              4.6276236      33.246465    
     45000   3.0829793      1.6628774      0              4.7381493      33.407317    
     45500   3.2530407      1.7350971      0              4.9800052      35.236762    
     46000   2.964105       2.1137103      0              5.070405       39.791397    
     46500   3.1267053      1.7213385      0              4.8402271      36.001962    
     47000   2.991318       1.5503024      0              4.5341421      32.328794    
     47500   3.1157722      1.5307982      0              4.638781       32.86899     
     48000   3.0518651      1.344777       0              4.3890125      28.673963    
     48500   2.9039296      1.6527769      0              4.5494466      33.929393    
     49000   2.9233802      1.7596068      0              4.6756785      35.631306    
     49500   3.1765257      1.7393719      0              4.9079563      34.659177    
     50000   3.0378386      1.8608146      0              4.8910586      35.947311    
Loop time of 1.00486 on 8 procs for 50000 steps with 400 atoms

Performance: 42990974.411 tau/day, 49758.072 timesteps/s, 19.903 Matom-step/s
99.1% CPU use with 8 MPI tasks x 1 OpenMP threads

MPI task timing breakdown:
Section |  min time  |  avg time  |  max time  |%varavg| %total
---------------------------------------------------------------
Pair    | 0.084237   | 0.087225   | 0.089169   |   0.6 |  8.68
Neigh   | 0.10734    | 0.10923    | 0.11216    |   0.4 | 10.87
Comm    | 0.51956    | 0.53513    | 0.54798    |   1.4 | 53.25
Output  | 0.001264   | 0.0018455  | 0.0058294  |   3.5 |  0.18
Modify  | 0.13214    | 0.15193    | 0.17133    |   4.1 | 15.12
Other   |            | 0.1195     |            |       | 11.89

Nlocal:             50 ave          51 max          49 min
Histogram: 3 0 0 0 0 2 0 0 0 3
Nghost:         45.125 ave          47 max          44 min
Histogram: 2 0 0 4 0 0 1 0 0 1
Neighs:        140.125 ave         146 max         136 min
Histogram: 2 0 1 1 0 1 1 1 0 1

Total # of neighbors = 1121
Ave neighs/atom = 2.8025
Neighbor list builds = 16861
Dangerous builds = 3
Generated 0 of 0 mixed pair_coeff terms from geometric mixing rule
Setting up Verlet run ...
  Unit style    : lj
  Current step  : 50000
  Time step     : 0.01
Per MPI rank memory allocation (min/avg/max) = 3.072 | 3.072 | 3.072 Mbytes
   Step          Temp          E_pair         E_mol          TotEng         Press     
     50000   3.0378386      1.8608146      0              4.8910586      35.947311    
     50500   3.1294163      1.6792786      0              4.8008713      34.49642     
     51000   3.2841815      1.5939012      0              4.8698722      33.100327    
     51500   3.0764192      1.9119428      0              4.980671       38.1248      
     52000   2.9013434      1.5306791      0              4.4247692      32.359714    
     52500   2.8992231      1.6798008      0              4.5717758      33.235274    
     53000   2.6798162      1.4629539      0              4.1360706      31.228413    
     53500   2.9407502      1.4822927      0              4.415691       31.670222    
     54000   2.981536       1.486012       0              4.4600941      31.726979    
     54500   2.9851562      1.5029576      0              4.4806509      32.206393    
     55000   2.98858        1.6131569      0              4.5942654      33.331682    
     55500   2.939723       1.6900112      0              4.6223849      34.373974    
     56000   2.9229402      1.4584609      0              4.3740937      31.854413    
     56500   2.6906671      1.6033365      0              4.2872769      32.950147    
     57000   2.8572372      1.3918563      0              4.2419505      30.255542    
     57500   2.7589166      1.4609924      0              4.2130117      31.109336    
     58000   2.7091532      1.5322269      0              4.2346072      32.098983    
     58500   2.7030254      1.4913201      0              4.187588       31.665002    
     59000   2.5040356      1.5241654      0              4.0219409      30.793965    
     59500   2.8556118      1.4497808      0              4.2982535      32.012509    
     60000   2.7293026      1.4679896      0              4.190469       30.665678    
     60500   2.644905       1.5364695      0              4.1747622      32.217009    
     61000   2.3449387      1.3750561      0              3.7141325      29.158974    
     61500   2.6149158      1.3494195      0              3.957798       29.169115    
     62000   2.5016385      1.3140659      0              3.8094502      28.661089    
     62500   2.6153608      1.313599       0              3.9224213      28.503893    
     63000   2.3769569      1.450135       0              3.8211495      30.586501    
     63500   2.3317452      1.4261158      0              3.7520317      30.247646    
     64000   2.445799       1.2534247      0              3.6931092      27.779722    
     64500   2.4589385      1.1389232      0              3.5917144      26.290177    
     65000   2.4714132      1.3662263      0              3.831461       29.500127    
     65500   2.3447448      1.3857032      0              3.7245861      29.540768    
     66000   2.7730908      1.1402281      0              3.9063862      26.879666    
     66500   2.494441       1.1133015      0              3.6015064      25.929587    
     67000   2.3706612      1.4232704      0              3.7880049      29.879807    
     67500   2.5497468      1.2868156      0              3.830188       28.146707    
     68000   2.6634078      1.5056523      0              4.1624016      31.260675    
     68500   2.3928539      1.1224443      0              3.509316       25.643864    
     69000   2.293216       1.3382302      0              3.6257132      29.252775    
     69500   2.2705082      1.3784479      0              3.6432799      29.197589    
     70000   2.4808485      1.2804009      0              3.7550473      28.166763    
     70500   2.270114       1.1586523      0              3.423091       26.127968    
     71000   2.2344667      1.1696413      0              3.3985218      26.552697    
     71500   2.3326258      1.0245974      0              3.3513916      25.060549    
     72000   2.3191263      1.1881152      0              3.5014437      26.18996     
     72500   2.4182936      1.1515852      0              3.5638331      26.608906    
     73000   2.4434924      1.3272191      0              3.7646028      28.668512    
     73500   2.4530139      1.2073199      0              3.6542012      27.16291     
     74000   2.3850153      1.1839155      0              3.5629683      26.739606    
     74500   2.4175823      1.1536571      0              3.5651955      26.183654    
     75000   2.3140763      1.1919724      0              3.5002635      26.927006    
     75500   2.2397439      1.1055763      0              3.3397209      25.552317    
     76000   2.1817751      1.1030385      0              3.2793591      24.92707     
     76500   2.1873752      0.97406332     0              3.1559701      23.618496    
     77000   2.022811       1.1212189      0              3.1389729      25.105299    
     77500   2.2535873      0.9395818      0              3.1875351      23.066263    
     78000   2.1806979      1.0291493      0              3.2043955      24.843446    
     78500   2.2347957      1.0396938      0              3.2689024      24.029335    
     79000   2.1206207      1.1249395      0              3.2402586      25.746841    
     79500   2.1158132      1.0037139      0              3.1142376      23.685398    
     80000   2.2672531      0.95954389     0              3.2211288      23.15207     
     80500   2.3038584      1.0461357      0              3.3442345      24.228456    
     81000   2.2267707      1.0664221      0              3.2876259      25.010728    
     81500   2.0953178      1.0897859      0              3.1798654      24.592696    
     82000   2.0556266      0.93721925     0              2.9877068      22.54317     
     82500   1.8881834      0.98295821     0              2.8664211      23.283141    
     83000   2.0937692      0.85273833     0              2.9412732      20.852839    
     83500   1.969521       0.91940393     0              2.8840011      21.578168    
     84000   2.0284505      0.90167391     0              2.9250533      21.96899     
     84500   1.8864331      0.87782568     0              2.7595427      21.497765    
     85000   1.8707014      0.99794821     0              2.8639729      23.332432    
     85500   2.0016226      0.94277377     0              2.9393923      22.566979    
     86000   2.0553614      1.0195862      0              3.0698092      23.873177    
     86500   2.0121005      0.96230144     0              2.9693717      22.761613    
     87000   1.9835081      0.95510626     0              2.9336555      22.384055    
     87500   1.8816151      1.0864914      0              2.9634025      24.630495    
     88000   1.7608297      0.93764978     0              2.6940774      22.92318     
     88500   1.9102708      0.85805074     0              2.7635459      21.332561    
     89000   1.802417       0.95080903     0              2.74872        22.923281    
     89500   1.7545992      0.82812989     0              2.5783426      20.642911    
     90000   1.6839819      1.003828       0              2.6835999      23.22157     
     90500   1.9130438      0.7658887      0              2.6741499      19.856667    
     91000   1.8353371      0.93070558     0              2.7614543      22.359527    
     91500   1.825082       0.96102853     0              2.7815478      22.454865    
     92000   1.8870511      0.84878713     0              2.7311206      21.577501    
     92500   1.7816429      0.8600614      0              2.6372502      20.70657     
     93000   1.8001367      0.87675005     0              2.6723864      21.701921    
     93500   1.8185091      0.93378114     0              2.7477439      21.35875     
     94000   1.8054717      0.83295203     0              2.6339101      20.355263    
     94500   1.6922914      0.85899379     0              2.5470545      20.907183    
     95000   1.8033848      0.6383558      0              2.4372321      17.426869    
     95500   1.7123147      0.66952438     0              2.3775583      17.745476    
     96000   1.6376978      0.73303691     0              2.3666405      18.325203    
     96500   1.5616675      0.80654053     0              2.3643038      20.197928    
     97000   1.5958402      0.73427002     0              2.3261206      18.930435    
     97500   1.5606319      0.66392463     0              2.2206549      17.564621    
     98000   1.5710842      0.70392995     0              2.2710864      18.220278    
[...]

Performance: 43016435.368 tau/day, 49787.541 timesteps/s, 19.915 Matom-step/s
99.5% CPU use with 8 MPI tasks x 1 OpenMP threads

MPI task timing breakdown:
Section |  min time  |  avg time  |  max time  |%varavg| %total
---------------------------------------------------------------
Pair    | 0.090491   | 0.098099   | 0.10369    |   1.3 |  9.77
Neigh   | 0.09294    | 0.095248   | 0.097478   |   0.6 |  9.48
Comm    | 0.51659    | 0.53898    | 0.55392    |   1.4 | 53.67
Output  | 0.0012086  | 0.0017482  | 0.0054427  |   3.3 |  0.17
Modify  | 0.12592    | 0.14968    | 0.17088    |   4.3 | 14.90
Other   |            | 0.1205     |            |       | 12.00

Nlocal:             50 ave          54 max          48 min
Histogram: 2 1 0 3 0 1 0 0 0 1
Nghost:          47.75 ave          50 max          43 min
Histogram: 1 1 0 0 1 0 0 0 1 4
Neighs:         147.75 ave         162 max         141 min
Histogram: 3 1 0 1 1 1 0 0 0 1

Total # of neighbors = 1182
Ave neighs/atom = 2.955
Neighbor list builds = 16850
Dangerous builds = 0
Generated 0 of 0 mixed pair_coeff terms from geometric mixing rule
Setting up Verlet run ...
  Unit style    : lj
  Current step  : 50000
  Time step     : 0.01
Per MPI rank memory allocation (min/avg/max) = 3.072 | 3.072 | 3.072 Mbytes
   Step          Temp          E_pair         E_mol          TotEng         Press     
     50000   3.0854223      1.7529177      0              4.8306264      39.324024    
     50500   2.8755492      1.9738119      0              4.8421723      42.626937    
     51000   3.0704376      1.9737686      0              5.0365301      42.850967    
     51500   2.8595799      1.9460658      0              4.7984967      41.708172    
     52000   2.8330105      1.8295688      0              4.6554968      40.469055    
     52500   2.8431258      1.9645176      0              4.8005357      41.908266    
     53000   2.9978386      1.9117665      0              4.9021105      40.657165    
     53500   3.2726695      1.7909279      0              5.0554157      39.424525    
     54000   3.1077174      1.6790342      0              4.7789823      38.090374    
     54500   2.8604043      1.8013744      0              4.6546277      38.918392    
     55000   2.8534494      1.815444       0              4.6617598      39.81587     
     55500   2.8544835      1.9025929      0              4.7499401      40.039035    
     56000   3.2603646      1.8293415      0              5.0815552      39.970083    
     56500   2.9290429      1.8292976      0              4.7510179      40.552094    
     57000   2.9983428      1.8926583      0              4.8835052      41.714634    
     57500   2.7503599      1.9041272      0              4.6476112      41.358501    
     58000   2.8865644      1.6554607      0              4.5348087      37.432319    
     58500   2.7041395      1.6992945      0              4.3966737      38.031354    
     59000   2.7259097      1.7234402      0              4.4425351      38.413376    
     59500   2.6563754      1.6672145      0              4.3169489      37.986479    
     60000   2.7061456      1.6760398      0              4.3754201      38.236654    
     60500   2.5771735      1.6471577      0              4.2178883      36.701875    
     61000   2.646427       1.4700432      0              4.1098541      34.864157    
     61500   2.5786441      1.6072066      0              4.1794041      37.28648     
     62000   2.6719791      1.4886072      0              4.1539064      34.80606     
     62500   2.7987053      1.6259684      0              4.4176769      37.257877    
     63000   2.8366449      1.8161257      0              4.645679       39.551395    
     63500   2.6968542      1.7226847      0              4.4127968      37.344546    
     64000   2.6210285      1.8767056      0              4.4911816      40.533482    
     64500   2.5724646      1.638309       0              4.2043425      36.622544    
     65000   2.3632293      1.7744059      0              4.1317271      39.269912    
     65500   2.3479829      1.7957719      0              4.1378849      38.395971    
     66000   2.5767167      1.600435       0              4.1707099      36.972263    
     66500   2.5797587      1.5573205      0              4.1306298      35.999906    
     67000   2.3905297      1.6857679      0              4.0703213      37.534783    
     67500   2.4264125      1.6002161      0              4.0205625      36.657257    
     68000   2.4155735      1.5988348      0              4.0083694      36.054436    
     68500   2.5211657      1.5586108      0              4.0734735      35.610644    
     69000   2.467429       1.6443548      0              4.1056152      36.63453     
     69500   2.700349       1.377854       0              4.071452       32.733858    
     70000   2.3745153      1.5588005      0              3.9273795      35.893983    
     70500   2.5105023      1.3546403      0              3.8588663      33.166378    
     71000   2.3177797      1.531444       0              3.8434293      35.317667    
     71500   2.4036374      1.6020629      0              3.9996912      36.532431    
     72000   2.2625495      1.633431       0              3.8903241      35.644533    
     72500   2.397466       1.4874978      0              3.87897        35.135825    
     73000   2.4357811      1.3046535      0              3.7343451      32.178541    
     73500   2.2778661      1.426878       0              3.6990494      33.429204    
     74000   2.3475307      1.3791295      0              3.7207914      32.650464    
     74500   2.4247253      1.444434       0              3.8630975      33.046291    
     75000   2.3689812      1.3945437      0              3.7576025      33.325831    
     75500   2.2249366      1.4556001      0              3.6749744      33.990498    
     76000   2.3036333      1.3454649      0              3.6433391      32.735568    
     76500   2.3151559      1.4701726      0              3.7795406      34.099243    
     77000   2.2734619      1.4011408      0              3.6689191      32.765154    
     77500   2.2129498      1.4093238      0              3.6167413      33.718662    
     78000   2.0957342      1.4751473      0              3.5656421      33.880624    
     78500   2.1400854      1.3227364      0              3.4574717      31.70915     
     79000   2.1492494      1.3834474      0              3.5273237      32.837183    
     79500   2.079323       1.2917753      0              3.3659         32.548623    
     80000   2.0842768      1.3247179      0              3.403784       31.929465    
     80500   2.1705446      1.2617774      0              3.4268957      30.24114     
     81000   2.1101207      1.3878335      0              3.4926789      32.708257    
     81500   2.3388897      1.4560642      0              3.7891067      34.001146    
     82000   2.1569268      1.369279       0              3.5208136      32.306586    
     82500   2.1046136      1.3608116      0              3.4601637      31.822108    
     83000   2.1061497      1.3518791      0              3.4527634      32.881974    
     83500   2.2432351      1.1744244      0              3.4120514      29.570804    
     84000   2.0252434      1.4406406      0              3.4608209      33.815372    
     84500   2.0129182      1.4206786      0              3.4285645      33.483393    
     85000   2.0934796      1.2796521      0              3.367898       31.5375      
     85500   2.0258843      1.2498788      0              3.2706984      30.471489    
     86000   1.7034673      1.2257798      0              2.9249885      29.613616    
     86500   1.8597722      1.1054144      0              2.9605372      27.967257    
     87000   1.8876492      1.1625116      0              3.0454417      28.902059    
     87500   1.9378271      1.2459541      0              3.1789367      30.894678    
     88000   2.1381482      1.0286876      0              3.1614904      27.183442    
     88500   1.9370262      1.1765237      0              3.1087074      28.918003    
     89000   1.7126331      1.2038572      0              2.9122087      30.322556    
     89500   1.8428103      1.1049155      0              2.9431188      27.893906    
     90000   1.9309864      1.0804439      0              3.0066028      27.584012    
     90500   1.9808455      1.0888551      0              3.0647485      28.021986    
     91000   1.7460985      1.1063719      0              2.8481051      28.493772    
     91500   1.7332768      1.0842941      0              2.8132377      27.630725    
     92000   1.6697497      1.0865604      0              2.7521357      28.015765    
     92500   1.8340977      1.0558109      0              2.8853234      27.372263    
     93000   1.7613082      0.95064462     0              2.7075495      26.215328    
     93500   1.7130742      1.0361177      0              2.7449093      27.700139    
     94000   1.695065       0.98512428     0              2.6759516      26.257829    
     94500   1.5911043      1.0601367      0              2.6472633      28.237276    
     95000   1.5283495      1.0889359      0              2.6134646      27.586122    
     95500   1.6276858      0.93350245     0              2.557119       25.263394    
     96000   1.6839993      1.056585       0              2.7363743      27.181884    
     96500   1.6764898      1.0409863      0              2.7132849      26.83114     
     97000   1.6059863      1.0450089      0              2.6469803      27.180566    
     97500   1.4519449      1.1031214      0              2.5514364      27.630553    
     98000   1.6279968      0.92827611     0              2.5522029      25.263957    
     98500   1.672518       0.87536368     0              2.5437004      24.002036    
     99000   1.6550394      0.97794908     0              2.6288509      25.748689    
     99500   1.7072957      1.042916       0              2.7459435      27.258721    
    100000   1.7153273      0.93110669     0              2.6421457      25.473029    
    100500   1.677732       0.94506924     0              2.6186069      25.452685    
    101000   1.6020544      0.90209145     0              2.5001407      24.954241    
    101500   1.5437768      0.91268019     0              2.4525976      25.06078     
    102000   1.5438986      0.85533402     0              2.3953728      23.587536    
    102500   1.5395285      0.95104906     0              2.4867287      25.426402    
    103000   1.4368217      0.9723071      0              2.4055367      25.669992    
    103500   1.5021821      0.91273436     0              2.411161       24.792424    
    104000   1.3787329      0.875855       0              2.2511411      23.885104    
    104500   1.4169999      0.77752801     0              2.1909854      22.393597    
    105000   1.5106005      0.74729388     0              2.2541179      22.134052    
    105500   1.3903326      0.96064653     0              2.3475033      24.738301    
    106000   1.4701091      0.78911418     0              2.255548       22.338897    
    106500   1.4030853      0.84203673     0              2.2416143      23.314272    
    107000   1.3789039      0.78261179     0              2.1580684      22.398707    
    107500   1.3995469      0.83805535     0              2.2341034      23.23127     
    108000   1.3401085      0.7911765      0              2.1279348      22.094876    
    108500   1.2603145      0.79567166     0              2.0528354      22.437849    
    109000   1.2806377      0.78432131     0              2.0617574      22.418569    
    109500   1.1512851      0.88386765     0              2.0322745      24.230769    
    110000   1.2259813      0.75999147     0              1.9829079      21.709283    
    110500   1.2164959      0.71426501     0              1.9277197      20.935056    
    111000   1.1893272      0.73036364     0              1.9167175      21.259257    
    111500   1.2407417      0.64929618     0              1.886936       19.766555    
    112000   1.1032745      0.65402197     0              1.7545382      19.983858    
    112500   1.1552229      0.63164192     0              1.7839767      19.188663    
    113000   1.1606414      0.67351246     0              1.8312522      19.968873    
    113500   1.1605495      0.71599178     0              1.8736399      20.809815    
    114000   1.2181         0.62793105     0              1.8429858      18.889696    
    114500   1.1665168      0.67061423     0              1.8342147      20.19224     
    115000   1.0057875      0.78186215     0              1.7851352      21.866669    
    115500   1.0242172      0.7092603      0              1.730917       20.195684    
    116000   1.0563451      0.65454667     0              1.7082509      19.898344    
    116500   1.112788       0.66657093     0              1.7765769      19.852445    
    117000   1.0343272      0.74106245     0              1.7728038      21.393583    
    117500   1.1409964      0.5438279      0              1.6819718      17.889824    
    118000   1.075702       0.5640861      0              1.6370989      18.149706    
    118500   0.98584669     0.66568828     0              1.6490703      19.800736    
    119000   1.0326947      0.60476894     0              1.6348819      18.752988    
    119500   1.017405       0.5987736      0              1.6136351      18.635976    
    120000   0.9744142      0.52821699     0              1.5001952      17.254411    
    120500   0.9459091      0.53304733     0              1.4765917      17.553304    
    121000   0.96815305     0.53583937     0              1.501572       17.029247    
    121500   0.92895401     0.51544865     0              1.4420803      16.773146    
    122000   0.90361568     0.54270783     0              1.4440645      17.611133    
    122500   0.9083601      0.51674754     0              1.4228367      16.103315    
    123000   0.92677665     0.45803999     0              1.3824997      15.455618    
    123500   0.87300138     0.56308583     0              1.4339047      17.899594    
    124000   0.88298918     0.52025225     0              1.401034       17.013731    
    124500   0.80685931     0.5917237      0              1.3965659      18.293706    
    125000   0.82869532     0.49481894     0              1.3214425      16.456856    
    125500   0.80667715     0.45535107     0              1.2600115      15.801865    
    126000   0.81423794     0.43115611     0              1.2433585      15.276889    
    126500   0.78658801     0.43003929     0              1.2146608      15.107684    
    127000   0.72998301     0.46269562     0              1.1908537      15.335942    
    127500   0.73857686     0.45024256     0              1.186973       15.371849    
    128000   0.73278935     0.42375019     0              1.1547076      14.834718    
    128500   0.75497601     0.38479384     0              1.1378824      14.034115    
    129000   0.71759137     0.38181472     0              1.0976121      13.972616    
    129500   0.69293006     0.38584004     0              1.0770378      13.817909    
    130000   0.64333155     0.41272202     0              1.0544452      14.417499    
    130500   0.65600188     0.37406251     0              1.0284244      13.764596    
    131000   0.56147269     0.31847616     0              0.87854517     12.159305    
    131500   0.66157101     0.35326617     0              1.0131833      12.941297    
    132000   0.64587103     0.34649366     0              0.99075002     13.090329    
    132500   0.62771953     0.32109107     0              0.9472413      12.233765    
    133000   0.63951981     0.34249232     0              0.98041333     13.077291    
    133500   0.55421001     0.33185903     0              0.88468352     12.67489     
    134000   0.59086786     0.30562823     0              0.89501892     12.06458     
    134500   0.55248875     0.3141156      0              0.86522313     12.069234    
    135000   0.50723965     0.30890835     0              0.81487991     12.202531    
    135500   0.4990648      0.27510716     0              0.7729243      11.488644    
    136000   0.49847533     0.27710648     0              0.77433562     11.280185    
    136500   0.45965638     0.2971055      0              0.75561274     11.67365     
    137000   0.44623199     0.27337661     0              0.71849303     11.054722    
    137500   0.44993602     0.26172235     0              0.71053353     11.0542      
    138000   0.44877789     0.2158933      0              0.66354924     9.5248293    
    138500   0.45721499     0.21038961     0              0.66646156     9.6378145    
    139000   0.42312544     0.23945944     0              0.66152706     10.331326    
    139500   0.41649143     0.25583303     0              0.67128324     10.378332    
    140000   0.40490367     0.21072711     0              0.61461852     9.6234692    
    140500   0.37769372     0.20237087     0              0.57912035     9.1072616    
    141000   0.35891297     0.19235742     0              0.55037311     9.0085001    
    141500   0.33766449     0.19078034     0              0.52760067     8.8654874    
    142000   0.33686622     0.20073403     0              0.53675809     9.1673481    
    142500   0.31710739     0.17135632     0              0.48767094     8.1163895    
    143000   0.31529934     0.16216917     0              0.47668027     8.1226396    
    143500   0.28415864     0.13431264     0              0.41776088     6.9630283    
    144000   0.27575871     0.14676664     0              0.42183595     7.2868956    
    144500   0.23725927     0.13166868     0              0.36833479     6.846553     
    145000   0.24086515     0.1178188      0              0.35808179     6.5705618    
    145500   0.22231732     0.12101549     0              0.34277702     6.5146244    
    146000   0.21468267     0.096541771    0              0.31068774     5.5932195    
    146500   0.21447811     0.088188936    0              0.30213086     5.2648732    
    147000   0.20422119     0.082044865    0              0.2857555      5.2620452    
    147500   0.17241418     0.080286896    0              0.25227004     5.1333567    
    148000   0.17256173     0.077160891    0              0.24929122     4.9233261    
    148500   0.13707529     0.061899883    0              0.19863249     4.2167623    
    149000   0.1261651      0.062088877    0              0.18793857     4.4154243    
    149500   0.12452609     0.0499672      0              0.17418197     3.7428624    
    150000   0.096984827    0.045239189    0              0.14198155     3.4140037    
Loop time of 1.85066 on 8 procs for 100000 steps with 400 atoms

Performance: 46686149.119 tau/day, 54034.895 timesteps/s, 21.614 Matom-step/s
99.4% CPU use with 8 MPI tasks x 1 OpenMP threads

MPI task timing breakdown:
Section |  min time  |  avg time  |  max time  |%varavg| %total
---------------------------------------------------------------
Pair    | 0.17346    | 0.18348    | 0.19379    |   1.6 |  9.91
Neigh   | 0.11972    | 0.12461    | 0.1292     |   0.9 |  6.73
Comm    | 0.97123    | 1.0071     | 1.031      |   2.1 | 54.42
Output  | 0.014277   | 0.014386   | 0.014963   |   0.2 |  0.78
Modify  | 0.24974    | 0.29617    | 0.33561    |   6.2 | 16.00
Other   |            | 0.2249     |            |       | 12.15

Nlocal:             50 ave          51 max          49 min
Histogram: 2 0 0 0 0 4 0 0 0 2
Nghost:         47.875 ave          50 max          45 min
Histogram: 1 0 0 0 2 0 2 0 2 1
Neighs:        149.375 ave         153 max         145 min
Histogram: 1 0 2 0 0 0 3 0 0 2

Total # of neighbors = 1195
Ave neighs/atom = 2.9875
Neighbor list builds = 23318
Dangerous builds = 0
Total wall time: 0:00:02
